/*--------------------------------*- C++ -*----------------------------------*\
  =========                 |
  \\      /  F ield         | OpenFOAM: The Open Source CFD Toolbox
   \\    /   O peration     | Website:  https://openfoam.org
    \\  /    A nd           | Version:  9
     \\/     M anipulation  |
\*---------------------------------------------------------------------------*/
FoamFile
{
    format      ascii;
    class       volScalarField;
    location    "0";
    object      V;
}
// * * * * * * * * * * * * * * * * * * * * * * * * * * * * * * * * * * * * * //

dimensions      [0 3 0 0 0 0 0];

internalField   nonuniform List<scalar> 
155679
(
3.12017e-09
3.87885e-09
3.91991e-09
3.81645e-09
2.83423e-09
1.10944e-09
4.17431e-09
3.86517e-08
3.53943e-08
3.57526e-08
3.66109e-08
4.57956e-09
3.84606e-09
4.17028e-09
3.67589e-08
3.8378e-08
3.9738e-08
3.99853e-08
3.94075e-08
3.6702e-08
5.34922e-09
3.69782e-09
3.12913e-09
3.86555e-08
3.83617e-08
3.88191e-08
3.6555e-08
3.66433e-08
3.71412e-08
3.95892e-08
3.59729e-08
4.82542e-09
1.88701e-09
3.88089e-09
3.53747e-08
3.9706e-08
3.64945e-08
3.80577e-08
3.85159e-08
3.72071e-08
3.82396e-08
3.78793e-08
5.44499e-09
3.19731e-09
3.92656e-09
3.57293e-08
3.9935e-08
3.65612e-08
3.84862e-08
3.89236e-08
3.75852e-08
3.78717e-08
3.82629e-08
5.52317e-09
3.25008e-09
3.8011e-09
3.66096e-08
3.93815e-08
3.71193e-08
3.72275e-08
3.76396e-08
3.66201e-08
3.91653e-08
3.70781e-08
5.32284e-09
3.05111e-09
2.8289e-09
4.5832e-09
3.6692e-08
3.95939e-08
3.83096e-08
3.79578e-08
3.92027e-08
3.87853e-08
3.63775e-08
4.72058e-09
1.02154e-09
3.8468e-09
5.35761e-09
3.59922e-08
3.79101e-08
3.82986e-08
3.71034e-08
3.63841e-08
4.76222e-09
3.21902e-09
3.82552e-09
4.82926e-09
5.43881e-09
5.52439e-09
5.32985e-09
4.72508e-09
3.21593e-09
1.88195e-09
3.18909e-09
3.25803e-09
3.04422e-09
1.01944e-09
1.15107e-09
4.24023e-09
3.82827e-08
3.91631e-08
3.57815e-08
3.94992e-08
5.36539e-09
3.83906e-09
4.13577e-09
3.82875e-08
3.74429e-08
3.72506e-08
3.7378e-08
3.7137e-08
3.72063e-08
3.73467e-08
3.72692e-08
3.87547e-08
3.15095e-09
4.50001e-09
3.75016e-08
3.70393e-08
2.97443e-07
2.98662e-07
3.00193e-07
3.00235e-07
2.99219e-07
2.9861e-07
3.70368e-08
3.72974e-08
3.74051e-08
3.90048e-09
4.1442e-09
3.75482e-08
3.72989e-08
2.99925e-07
3.01786e-07
3.06769e-07
3.11887e-07
3.119e-07
3.06829e-07
3.01916e-07
3.00078e-07
3.7285e-08
3.79024e-08
4.0256e-08
2.98992e-09
1.16302e-09
3.83123e-08
3.70395e-08
3.0002e-07
3.0511e-07
3.19608e-07
3.34647e-07
3.4162e-07
3.41544e-07
3.34616e-07
3.19753e-07
3.05211e-07
3.00067e-07
3.73375e-08
3.73946e-08
5.49073e-09
4.40538e-09
3.74443e-08
2.98355e-07
3.01961e-07
3.19788e-07
3.42888e-07
3.52808e-07
3.55421e-07
3.55336e-07
3.53108e-07
3.43351e-07
3.19538e-07
3.01618e-07
2.97643e-07
3.7165e-08
3.79747e-08
2.38986e-09
3.83355e-08
3.72511e-08
2.98932e-07
3.06652e-07
3.34055e-07
3.50889e-07
3.51827e-07
3.51235e-07
3.51787e-07
3.53595e-07
3.52311e-07
3.34256e-07
3.06297e-07
2.9866e-07
3.73472e-08
3.70022e-08
4.35499e-09
3.91529e-08
3.73556e-08
3.00005e-07
3.11523e-07
3.40316e-07
3.50687e-07
3.45582e-07
3.47796e-07
3.48901e-07
3.47684e-07
3.51519e-07
3.40248e-07
3.11385e-07
3.00054e-07
3.74701e-08
3.74316e-08
4.48118e-09
3.57991e-08
3.71366e-08
3.00086e-07
3.11604e-07
3.40444e-07
3.51286e-07
3.46736e-07
3.48557e-07
3.48231e-07
3.45556e-07
3.49933e-07
3.39772e-07
3.11501e-07
3.00062e-07
3.76295e-08
3.63095e-08
5.31386e-09
3.94972e-08
3.72016e-08
2.99135e-07
3.06656e-07
3.34193e-07
3.52242e-07
3.53344e-07
3.51737e-07
3.51312e-07
3.51609e-07
3.51313e-07
3.34093e-07
3.06674e-07
2.98997e-07
3.73309e-08
3.76452e-08
4.62194e-09
5.37805e-09
3.73451e-08
2.98537e-07
3.01736e-07
3.19199e-07
3.43103e-07
3.52962e-07
3.55262e-07
3.5525e-07
3.52448e-07
3.42995e-07
3.19696e-07
3.01972e-07
2.98375e-07
3.7364e-08
3.68844e-08
4.24784e-09
3.84753e-09
3.72688e-08
3.70389e-08
2.99961e-07
3.04734e-07
3.19228e-07
3.34411e-07
3.41367e-07
3.41514e-07
3.3434e-07
3.19675e-07
3.05296e-07
3.00051e-07
3.71492e-08
3.74775e-08
3.92375e-08
2.10872e-09
3.87293e-08
3.73053e-08
3.72718e-08
2.9923e-07
3.008e-07
3.06566e-07
3.11877e-07
3.11933e-07
3.06971e-07
3.02117e-07
3.00112e-07
3.71234e-08
3.7392e-08
3.68628e-08
4.40315e-09
3.16279e-09
3.74122e-08
3.7891e-08
3.73455e-08
2.98374e-07
2.99164e-07
3.00246e-07
3.002e-07
2.99093e-07
2.98457e-07
3.71584e-08
3.7409e-08
3.75761e-08
5.36551e-09
1.2198e-09
3.88715e-09
4.02364e-08
3.73861e-08
3.73233e-08
3.74053e-08
3.7459e-08
3.76285e-08
3.73329e-08
3.73736e-08
3.74703e-08
3.68587e-08
5.35315e-09
2.87206e-09
3.00373e-09
5.49211e-09
3.79421e-08
3.69715e-08
3.7419e-08
3.63111e-08
3.76289e-08
3.68835e-08
3.92253e-08
4.40581e-09
1.2135e-09
2.39612e-09
4.3589e-09
4.47743e-09
5.31499e-09
4.62151e-09
4.24073e-09
2.11273e-09
1.11115e-09
2.30873e-09
2.45267e-09
2.2811e-09
1.27374e-09
3.8658e-08
3.66328e-08
3.66599e-08
3.72609e-08
3.76144e-08
3.66803e-08
3.72816e-08
3.85919e-08
3.93982e-09
4.0577e-09
3.70684e-08
3.70953e-08
3.00054e-07
2.99308e-07
2.999e-07
2.99936e-07
2.99406e-07
3.0015e-07
3.73259e-08
3.72019e-08
3.76299e-08
3.81292e-09
4.04581e-08
3.69791e-08
2.98565e-07
2.99773e-07
2.99828e-07
2.99855e-07
2.99368e-07
2.99426e-07
3.00067e-07
3.00114e-07
3.00044e-07
2.98795e-07
3.71203e-08
3.73352e-08
4.26015e-09
4.04386e-08
3.79144e-08
2.99638e-07
2.99754e-07
2.9978e-07
2.98977e-07
2.98549e-07
2.97954e-07
2.98026e-07
2.99055e-07
2.99749e-07
3.00191e-07
3.00028e-07
3.00004e-07
3.7434e-08
3.77492e-08
4.33856e-09
4.05824e-09
3.6988e-08
2.98882e-07
2.99517e-07
3.00154e-07
2.98284e-07
2.94049e-07
2.90943e-07
2.88836e-07
2.88672e-07
2.91348e-07
2.94731e-07
2.98682e-07
3.00468e-07
3.00183e-07
2.99971e-07
3.70459e-08
3.69885e-08
2.69193e-09
1.27373e-09
3.70553e-08
2.98548e-07
2.99584e-07
3.00116e-07
2.99e-07
2.93496e-07
3.63568e-08
3.58733e-08
3.58596e-08
3.5934e-08
3.58757e-08
3.60675e-08
2.93375e-07
2.99086e-07
3.00595e-07
3.00113e-07
2.98817e-07
3.69512e-08
3.89638e-08
3.86506e-08
3.71017e-08
2.99536e-07
2.99867e-07
2.98536e-07
2.93941e-07
3.62169e-08
3.57056e-08
3.82205e-08
3.93394e-08
3.92129e-08
3.96043e-08
3.65464e-08
3.57512e-08
2.93512e-07
2.9877e-07
3.00314e-07
3.00128e-07
3.72381e-08
3.67032e-08
3.00242e-09
3.66588e-08
2.99688e-07
2.99313e-07
2.99152e-07
2.94313e-07
3.63933e-08
3.57891e-08
3.97713e-08
4.0126e-08
4.00144e-08
3.98671e-08
3.98072e-08
4.07822e-08
3.77237e-08
3.58751e-08
2.94364e-07
2.99651e-07
3.00208e-07
3.00284e-07
3.70864e-08
5.24219e-09
1.11171e-09
3.66452e-08
2.99239e-07
2.99694e-07
2.98535e-07
2.9083e-07
3.58945e-08
3.86719e-08
4.02268e-08
3.95991e-08
3.91354e-08
3.8973e-08
3.9312e-08
3.99871e-08
4.04224e-08
3.58846e-08
2.90784e-07
2.98879e-07
3.00106e-07
2.99475e-07
3.71212e-08
3.78838e-08
2.30952e-09
3.72672e-08
2.99894e-07
2.99301e-07
2.97813e-07
2.88684e-07
3.58467e-08
3.96545e-08
3.98708e-08
3.83606e-08
3.84261e-08
3.87193e-08
3.85878e-08
3.9177e-08
4.06542e-08
3.67525e-08
2.8848e-07
2.9796e-07
2.99431e-07
2.99955e-07
3.69436e-08
3.97267e-08
2.45258e-09
3.76132e-08
2.99925e-07
2.99388e-07
2.97908e-07
2.88565e-07
3.5956e-08
3.93122e-08
3.96527e-08
3.78513e-08
3.8333e-08
3.86965e-08
3.78754e-08
3.83081e-08
3.99513e-08
3.72014e-08
2.88802e-07
2.97887e-07
2.99342e-07
2.99899e-07
3.71766e-08
4.00996e-08
2.28107e-09
3.66786e-08
2.99401e-07
3.00053e-07
2.98988e-07
2.91235e-07
3.58992e-08
3.974e-08
4.00061e-08
3.92557e-08
3.8843e-08
3.88198e-08
3.87456e-08
3.94202e-08
4.06922e-08
3.65611e-08
2.9107e-07
2.98674e-07
2.99853e-07
2.99299e-07
3.68161e-08
3.89722e-08
3.72986e-08
3.00209e-07
3.00132e-07
2.99736e-07
2.94583e-07
3.60451e-08
3.64795e-08
4.05276e-08
3.9952e-08
3.9466e-08
3.94356e-08
3.9722e-08
4.03267e-08
3.93809e-08
3.57577e-08
2.9443e-07
2.99314e-07
2.99901e-07
3.00084e-07
3.71745e-08
5.59077e-09
3.85726e-08
3.73091e-08
3.00031e-07
3.00245e-07
2.98704e-07
2.9331e-07
3.5731e-08
3.76627e-08
4.02093e-08
4.02019e-08
4.03368e-08
4.0292e-08
3.91906e-08
3.6032e-08
2.93985e-07
2.98587e-07
2.99939e-07
2.99791e-07
3.7378e-08
3.69138e-08
5.06365e-09
3.93949e-09
3.71739e-08
2.99132e-07
3.00209e-07
3.00479e-07
2.98927e-07
2.93129e-07
3.58566e-08
3.59522e-08
3.68254e-08
3.71421e-08
3.66047e-08
3.57662e-08
2.94039e-07
2.99216e-07
3.00323e-07
2.99797e-07
2.98533e-07
3.70451e-08
3.82049e-08
2.51674e-09
3.76267e-08
3.73394e-08
3.00335e-07
3.0012e-07
3.00386e-07
2.98506e-07
2.94512e-07
2.91263e-07
2.88808e-07
2.88962e-07
2.91182e-07
2.94528e-07
2.98659e-07
3.00317e-07
2.9998e-07
2.99772e-07
3.70746e-08
3.73294e-08
5.2564e-09
3.81194e-09
3.72602e-08
3.74251e-08
2.99846e-07
2.9999e-07
3.00133e-07
2.99718e-07
2.99098e-07
2.98148e-07
2.98052e-07
2.98763e-07
2.99318e-07
2.99929e-07
2.99799e-07
2.99747e-07
3.73594e-08
3.75563e-08
3.91541e-08
1.25999e-09
4.26206e-09
3.77237e-08
3.7019e-08
2.99724e-07
3.00066e-07
3.00098e-07
3.00137e-07
2.99498e-07
2.99376e-07
2.99876e-07
2.99876e-07
2.99781e-07
2.98584e-07
3.70782e-08
3.7544e-08
3.71214e-08
3.75755e-09
4.33703e-09
3.69331e-08
3.72085e-08
3.72165e-08
3.00193e-07
3.0012e-07
3.00271e-07
2.99893e-07
2.99291e-07
3.00053e-07
3.73729e-08
3.70516e-08
3.73315e-08
3.91512e-08
3.75749e-09
2.69179e-09
3.89321e-08
3.66821e-08
3.70505e-08
3.73155e-08
3.70185e-08
3.71617e-08
3.68122e-08
3.71757e-08
3.69144e-08
3.82085e-08
5.25387e-09
1.25942e-09
3.00304e-09
5.24012e-09
3.78434e-08
3.97134e-08
4.00711e-08
3.89758e-08
5.58969e-09
5.06289e-09
2.51644e-09
8.40302e-10
2.24227e-09
2.96035e-09
2.17131e-09
2.18239e-08
4.16325e-08
3.07255e-07
3.13386e-07
3.16761e-07
3.16763e-07
3.13439e-07
3.07297e-07
4.26584e-08
4.05105e-08
9.09225e-10
1.29953e-08
3.93084e-08
3.13553e-07
3.0845e-07
3.04809e-07
3.04335e-07
3.06026e-07
3.06065e-07
3.04434e-07
3.04921e-07
3.08528e-07
3.13588e-07
3.80728e-08
3.82413e-08
4.00239e-08
4.74749e-08
3.09699e-07
3.04899e-07
3.03282e-07
3.02744e-07
3.02666e-07
3.03171e-07
3.03261e-07
3.02912e-07
3.03058e-07
3.0353e-07
3.05034e-07
3.09782e-07
3.9515e-08
4.08382e-08
4.15136e-08
3.07649e-07
3.08631e-07
3.0536e-07
3.02829e-07
3.02498e-07
3.02442e-07
3.02703e-07
3.02834e-07
3.0303e-07
3.03295e-07
3.03161e-07
3.03026e-07
3.03194e-07
3.05616e-07
3.0886e-07
3.07733e-07
3.66454e-08
1.29995e-08
4.74517e-08
3.0871e-07
3.0457e-07
3.03243e-07
3.02712e-07
3.02656e-07
3.02064e-07
3.02412e-07
3.02467e-07
3.02346e-07
3.03428e-07
3.03532e-07
3.03482e-07
3.03289e-07
3.03768e-07
3.04948e-07
3.08795e-07
3.91862e-08
4.25567e-08
3.93167e-08
3.09689e-07
3.05338e-07
3.03192e-07
3.02915e-07
3.03009e-07
3.03046e-07
3.01595e-07
3.02341e-07
3.75058e-08
3.72627e-08
3.06229e-07
3.03544e-07
3.03688e-07
3.03654e-07
3.03636e-07
3.03827e-07
3.05674e-07
3.09858e-07
3.81935e-08
3.11378e-08
2.18167e-08
3.13556e-07
3.04875e-07
3.02803e-07
3.02736e-07
3.03123e-07
3.03725e-07
3.06949e-07
3.72196e-08
3.69274e-08
4.51261e-09
4.32026e-09
3.91372e-08
3.64876e-08
3.06496e-07
3.0398e-07
3.03986e-07
3.03558e-07
3.03358e-07
3.05144e-07
3.13649e-07
4.31262e-08
4.16292e-08
3.08466e-07
3.03204e-07
3.02458e-07
3.02837e-07
3.0358e-07
3.08368e-07
3.74477e-08
5.68888e-09
5.17994e-09
4.3602e-09
4.06148e-09
4.46406e-09
3.76465e-09
3.98458e-08
3.0737e-07
3.04485e-07
3.03981e-07
3.03276e-07
3.03651e-07
3.08575e-07
3.91302e-08
3.84318e-09
3.07279e-07
3.0483e-07
3.02687e-07
3.02376e-07
3.02238e-07
3.01844e-07
3.72563e-08
5.71212e-09
4.01376e-09
2.94703e-08
2.90401e-08
3.02355e-08
3.02612e-08
2.75706e-08
5.05387e-09
3.74337e-08
3.04082e-07
3.03955e-07
3.03392e-07
3.03187e-07
3.04968e-07
3.07296e-07
4.01769e-08
8.40511e-10
3.13407e-07
3.04336e-07
3.02615e-07
3.02577e-07
3.02223e-07
3.02337e-07
3.69326e-08
5.19982e-09
2.89266e-08
3.09044e-08
2.89922e-08
2.96693e-08
2.94038e-08
2.89289e-08
2.47588e-09
4.19784e-09
3.06118e-07
3.0342e-07
3.03384e-07
3.02986e-07
3.04467e-07
3.13435e-07
4.36166e-08
2.24142e-09
3.16751e-07
3.06024e-07
3.03133e-07
3.02717e-07
3.02217e-07
3.7478e-08
4.49374e-09
4.39403e-09
2.70357e-08
1.05625e-09
2.47319e-08
2.3882e-08
2.63152e-08
2.91987e-08
2.88534e-08
5.72384e-09
3.72255e-08
3.02254e-07
3.03014e-07
3.03281e-07
3.06085e-07
3.16789e-07
4.49553e-08
2.95936e-09
3.16779e-07
3.0607e-07
3.03249e-07
3.02964e-07
3.02163e-07
3.72434e-08
4.31925e-09
4.04114e-09
2.85172e-08
1.65181e-09
2.35425e-08
2.51889e-08
1.01017e-09
1.66657e-09
2.78574e-08
4.85615e-09
3.65492e-08
3.02205e-07
3.02775e-07
3.0317e-07
3.06033e-07
3.16755e-07
4.24214e-08
2.17216e-09
3.13424e-07
3.04445e-07
3.02937e-07
3.03318e-07
3.03399e-07
3.06035e-07
3.9025e-08
4.50005e-09
2.93963e-08
2.55271e-08
2.71833e-08
2.74227e-08
2.91544e-08
2.83571e-08
2.77714e-08
5.8331e-09
3.02771e-07
3.0244e-07
3.02734e-07
3.02686e-07
3.04344e-07
3.13404e-07
4.54035e-08
3.07287e-07
3.04935e-07
3.03114e-07
3.0326e-07
3.0364e-07
3.03384e-07
3.63649e-08
3.83248e-09
2.74796e-08
2.94532e-08
3.21383e-08
2.74322e-08
3.09177e-08
2.97419e-08
2.7855e-09
4.83031e-09
3.02084e-07
3.02422e-07
3.02579e-07
3.0279e-07
3.04824e-07
3.07271e-07
4.11651e-08
4.26548e-08
3.08537e-07
3.03587e-07
3.03205e-07
3.03843e-07
3.04212e-07
3.06856e-07
4.00762e-08
5.0136e-09
2.40655e-09
2.93838e-08
2.87886e-08
2.79689e-08
2.8259e-09
4.00923e-09
3.07983e-07
3.03562e-07
3.02943e-07
3.02606e-07
3.03299e-07
3.08425e-07
3.87104e-08
3.73248e-08
4.05046e-08
3.1362e-07
3.05142e-07
3.03534e-07
3.03653e-07
3.03909e-07
3.03858e-07
3.06188e-07
3.73063e-08
4.19956e-09
5.7252e-09
4.88384e-09
5.82835e-09
4.8491e-09
3.0813e-07
3.03875e-07
3.03247e-07
3.02863e-07
3.02863e-07
3.04876e-07
3.13521e-07
4.71956e-08
2.76962e-09
9.08297e-10
3.80702e-08
3.09875e-07
3.06035e-07
3.04036e-07
3.03638e-07
3.03622e-07
3.03558e-07
3.03235e-07
3.07126e-07
3.73379e-08
3.66398e-08
3.02749e-07
3.0182e-07
3.03514e-07
3.03193e-07
3.03102e-07
3.03369e-07
3.05369e-07
3.09675e-07
3.78887e-08
4.13371e-08
3.82208e-08
3.95204e-08
3.08865e-07
3.04983e-07
3.03781e-07
3.03336e-07
3.03512e-07
3.03592e-07
3.03732e-07
3.02615e-07
3.02514e-07
3.02512e-07
3.0221e-07
3.0283e-07
3.02806e-07
3.03362e-07
3.04697e-07
3.08706e-07
3.84907e-08
4.45494e-08
2.60721e-09
4.07997e-08
3.07721e-07
3.088e-07
3.05734e-07
3.03443e-07
3.0314e-07
3.03272e-07
3.03504e-07
3.03202e-07
3.02891e-07
3.02734e-07
3.0249e-07
3.02556e-07
3.02858e-07
3.05371e-07
3.08644e-07
3.07632e-07
3.81856e-08
2.22492e-08
1.27919e-09
3.70419e-08
3.91857e-08
3.09839e-07
3.05225e-07
3.03592e-07
3.0319e-07
3.03224e-07
3.03487e-07
3.03225e-07
3.02675e-07
3.02756e-07
3.03298e-07
3.04905e-07
3.09695e-07
3.84938e-08
3.81237e-08
3.64607e-08
4.25384e-08
3.81865e-08
3.1362e-07
3.0851e-07
3.04971e-07
3.04669e-07
3.06195e-07
3.06043e-07
3.04331e-07
3.04811e-07
3.08425e-07
3.13538e-07
3.789e-08
4.45609e-08
2.22824e-08
3.11297e-08
4.31327e-08
3.91309e-08
3.07263e-07
3.13427e-07
3.1675e-07
3.16746e-07
3.13378e-07
3.07256e-07
3.87081e-08
4.71848e-08
4.1332e-08
2.60692e-09
3.84541e-09
4.01859e-08
4.36209e-08
4.49478e-08
4.24271e-08
4.53971e-08
4.1167e-08
3.7323e-08
2.76927e-09
3.90509e-08
3.77152e-08
3.73006e-08
3.68341e-08
3.74922e-08
3.91864e-08
4.30169e-09
2.79099e-09
3.75905e-08
3.07415e-07
3.06589e-07
3.07582e-07
3.0951e-07
3.09536e-07
3.07654e-07
3.06666e-07
3.07506e-07
3.81798e-08
3.75039e-08
3.67107e-08
3.12975e-07
3.1071e-07
3.08788e-07
3.06639e-07
3.06536e-07
3.0728e-07
3.0734e-07
3.06683e-07
3.06801e-07
3.08907e-07
3.10628e-07
3.12675e-07
3.81145e-08
4.96313e-09
4.65876e-08
3.16285e-07
3.12351e-07
3.07778e-07
3.06251e-07
3.05575e-07
3.05626e-07
3.05976e-07
3.0612e-07
3.05996e-07
3.05997e-07
3.06565e-07
3.0796e-07
3.12493e-07
3.16447e-07
4.0297e-08
4.15765e-08
4.65644e-08
3.14578e-07
3.11833e-07
3.08253e-07
3.061e-07
3.0525e-07
3.04887e-07
3.05024e-07
3.05219e-07
3.05534e-07
3.05831e-07
3.05781e-07
3.0588e-07
3.06559e-07
3.08604e-07
3.12155e-07
3.14734e-07
4.04452e-08
3.95901e-08
3.67166e-08
3.16354e-07
3.11959e-07
3.0787e-07
3.06128e-07
3.05036e-07
3.04553e-07
3.03897e-07
3.04546e-07
3.05063e-07
3.05336e-07
3.05964e-07
3.05547e-07
3.05403e-07
3.05747e-07
3.06738e-07
3.08317e-07
3.12154e-07
3.16443e-07
3.92573e-08
4.7989e-09
2.7988e-09
3.12602e-07
3.12322e-07
3.08275e-07
3.06124e-07
3.04921e-07
3.03961e-07
3.04754e-07
3.03631e-07
3.0311e-07
3.82718e-08
3.06761e-07
3.12543e-07
3.06455e-07
3.05207e-07
3.04779e-07
3.05808e-07
3.06851e-07
3.08728e-07
3.12631e-07
3.13114e-07
4.39785e-08
3.76218e-08
3.10498e-07
3.07724e-07
3.06119e-07
3.0513e-07
3.04105e-07
3.02691e-07
3.03949e-07
3.90766e-08
3.6655e-08
3.89075e-08
3.74753e-08
3.74682e-08
3.71021e-08
3.03602e-07
3.04126e-07
3.05386e-07
3.06227e-07
3.06862e-07
3.08177e-07
3.1093e-07
3.85588e-08
5.39304e-09
3.07424e-07
3.08741e-07
3.06233e-07
3.05312e-07
3.04788e-07
3.05259e-07
3.04625e-07
3.75502e-08
2.6716e-08
3.78664e-08
5.55184e-09
3.56432e-08
4.23719e-08
2.47171e-08
4.01318e-08
3.07157e-07
3.07217e-07
3.06281e-07
3.06317e-07
3.06798e-07
3.09043e-07
3.07509e-07
3.79777e-08
3.90354e-08
3.06593e-07
3.0663e-07
3.0557e-07
3.04941e-07
3.042e-07
3.04598e-07
3.91621e-08
2.76252e-08
4.36941e-08
3.63944e-08
5.05722e-09
3.54824e-08
3.65108e-08
3.46251e-08
3.47894e-08
4.35303e-08
3.08462e-07
3.06192e-07
3.06135e-07
3.0619e-07
3.06886e-07
3.06687e-07
3.78148e-08
1.10723e-09
3.77215e-08
3.07592e-07
3.06529e-07
3.05593e-07
3.04921e-07
3.04202e-07
3.03461e-07
3.74682e-08
4.23921e-08
3.61766e-08
3.4917e-08
3.79152e-09
3.51297e-08
4.83343e-09
5.39545e-09
3.60353e-08
2.43147e-08
3.1159e-07
3.05893e-07
3.05922e-07
3.0611e-07
3.06736e-07
3.07684e-07
3.8108e-08
4.6253e-09
3.72961e-08
3.09505e-07
3.07272e-07
3.05937e-07
3.05073e-07
3.04422e-07
3.82031e-08
3.88678e-08
4.6502e-09
6.60877e-09
2.83111e-09
6.27033e-09
7.20316e-09
1.58606e-09
3.64572e-08
3.55711e-08
3.33604e-08
3.06037e-07
3.04974e-07
3.05461e-07
3.06159e-07
3.07366e-07
3.09568e-07
3.82465e-08
5.57638e-09
3.68278e-08
3.09548e-07
3.07352e-07
3.06118e-07
3.05464e-07
3.05104e-07
3.06189e-07
3.75735e-08
3.66245e-08
3.5498e-08
4.03268e-08
6.21675e-09
4.68474e-09
4.12594e-09
3.61194e-08
3.47942e-08
3.81918e-08
3.04322e-07
3.05099e-07
3.05985e-07
3.07288e-07
3.09527e-07
3.81658e-08
4.47658e-09
3.74914e-08
3.07668e-07
3.06719e-07
3.0606e-07
3.05926e-07
3.06134e-07
3.1328e-07
3.78864e-08
4.42658e-08
3.46488e-08
4.85895e-09
3.76721e-09
3.07933e-09
3.71632e-08
4.24275e-09
5.37843e-09
5.55999e-09
3.04298e-07
3.04476e-07
3.05047e-07
3.05666e-07
3.06542e-07
3.07601e-07
3.82214e-08
5.58921e-09
3.91881e-08
3.06673e-07
3.06859e-07
3.06123e-07
3.06008e-07
3.05938e-07
3.07744e-07
3.70925e-08
2.32185e-08
4.99042e-09
4.29954e-09
3.58221e-08
2.98386e-09
3.55859e-08
3.59452e-08
4.31936e-08
3.31907e-08
3.05146e-07
3.0438e-07
3.05065e-07
3.0563e-07
3.06644e-07
3.06604e-07
3.8034e-08
4.14082e-09
4.29748e-09
3.07484e-07
3.09009e-07
3.06743e-07
3.06236e-07
3.06153e-07
3.07117e-07
3.07555e-07
3.9437e-08
2.51958e-08
3.76545e-08
3.57314e-08
4.06487e-09
3.63462e-08
4.2443e-08
2.57111e-08
3.03947e-07
3.05257e-07
3.04864e-07
3.05391e-07
3.0627e-07
3.08743e-07
3.07429e-07
3.79285e-08
3.81627e-08
3.10901e-07
3.08165e-07
3.06884e-07
3.06216e-07
3.05363e-07
3.04177e-07
3.03414e-07
4.45423e-08
2.4248e-08
3.2902e-08
3.22211e-08
4.7387e-09
3.2307e-08
3.0357e-07
3.02538e-07
3.04108e-07
3.05187e-07
3.06159e-07
3.07739e-07
3.10493e-07
3.8985e-08
3.98721e-08
3.75032e-08
3.13087e-07
3.12614e-07
3.0877e-07
3.06926e-07
3.05829e-07
3.0481e-07
3.05251e-07
3.07164e-07
3.13904e-07
3.06425e-07
3.82372e-08
3.02567e-07
3.03277e-07
3.04605e-07
3.03947e-07
3.04977e-07
3.0621e-07
3.08286e-07
3.12314e-07
3.12585e-07
3.85794e-08
4.20851e-09
3.81126e-08
3.16417e-07
3.12153e-07
3.08348e-07
3.06741e-07
3.05809e-07
3.05509e-07
3.0579e-07
3.06322e-07
3.05424e-07
3.04877e-07
3.04283e-07
3.03847e-07
3.04554e-07
3.05071e-07
3.06162e-07
3.07916e-07
3.11916e-07
3.16319e-07
3.92626e-08
3.95177e-08
4.96324e-09
4.02795e-08
3.14803e-07
3.12193e-07
3.08681e-07
3.06686e-07
3.06009e-07
3.05944e-07
3.06048e-07
3.05657e-07
3.05196e-07
3.04946e-07
3.04877e-07
3.05276e-07
3.06132e-07
3.08287e-07
3.11903e-07
3.14581e-07
3.96234e-08
4.32202e-08
2.64295e-09
4.16123e-08
4.04844e-08
3.16456e-07
3.12584e-07
3.08102e-07
3.06683e-07
3.06131e-07
3.06177e-07
3.06253e-07
3.06009e-07
3.05618e-07
3.05577e-07
3.06265e-07
3.078e-07
3.12374e-07
3.16299e-07
3.95985e-08
4.72017e-08
3.71378e-09
3.95818e-08
3.92523e-08
3.13065e-07
3.10872e-07
3.08982e-07
3.06866e-07
3.06769e-07
3.07405e-07
3.07301e-07
3.06532e-07
3.06635e-07
3.08795e-07
3.10725e-07
3.12986e-07
3.92649e-08
4.322e-08
3.71524e-09
4.797e-09
4.39841e-08
3.8559e-08
3.0746e-07
3.06671e-07
3.07671e-07
3.09548e-07
3.09512e-07
3.07581e-07
3.06581e-07
3.07426e-07
3.8988e-08
3.86461e-08
3.94645e-08
2.64414e-09
5.39218e-09
3.79715e-08
3.78128e-08
3.81094e-08
3.82438e-08
3.81669e-08
3.82231e-08
3.8034e-08
3.79258e-08
3.98526e-08
4.20517e-09
1.10747e-09
4.62892e-09
5.57457e-09
4.47505e-09
5.59039e-09
4.14108e-09
3.15197e-09
3.73798e-08
3.62596e-08
3.8147e-08
3.88196e-08
3.69236e-08
3.78778e-08
5.7246e-09
1.86499e-09
3.77945e-08
3.72761e-08
3.01966e-07
3.03702e-07
3.03426e-07
3.06329e-07
3.0636e-07
3.03492e-07
3.03763e-07
3.02063e-07
3.76204e-08
3.56504e-08
2.9166e-09
3.80123e-08
3.03151e-07
3.02992e-07
3.0409e-07
3.0479e-07
3.05397e-07
3.06243e-07
3.06299e-07
3.05532e-07
3.0494e-07
3.04185e-07
3.02924e-07
3.02934e-07
3.76873e-08
3.6916e-08
2.80213e-09
2.99552e-07
3.06808e-07
3.06485e-07
3.05416e-07
3.05459e-07
3.05854e-07
3.06335e-07
3.06743e-07
3.06877e-07
3.06666e-07
3.06228e-07
3.05743e-07
3.05614e-07
3.0666e-07
3.06978e-07
2.99607e-07
3.48664e-08
2.99678e-07
3.03246e-07
3.06192e-07
3.06381e-07
3.05871e-07
3.05537e-07
3.05336e-07
3.05359e-07
3.05243e-07
3.05485e-07
3.05966e-07
3.06003e-07
3.06049e-07
3.06297e-07
3.06739e-07
3.06476e-07
3.03413e-07
2.99663e-07
4.06e-08
3.8054e-08
3.06868e-07
3.06316e-07
3.06295e-07
3.05731e-07
3.04661e-07
3.04112e-07
3.03805e-07
3.04365e-07
3.03843e-07
3.03892e-07
3.05311e-07
3.04856e-07
3.04683e-07
3.05236e-07
3.06289e-07
3.06737e-07
3.06555e-07
3.07009e-07
3.80848e-08
5.89306e-09
3.62246e-08
3.02839e-07
3.06483e-07
3.06446e-07
3.05757e-07
3.0415e-07
3.02345e-07
3.02716e-07
3.02394e-07
3.07195e-07
3.78476e-08
2.99445e-07
3.07784e-07
3.03549e-07
3.02884e-07
3.03026e-07
3.04896e-07
3.06434e-07
3.06915e-07
3.06785e-07
3.03354e-07
3.76477e-08
1.12161e-09
3.73008e-08
3.02812e-07
3.05393e-07
3.05919e-07
3.0477e-07
3.0249e-07
2.9838e-07
2.97134e-07
3.77552e-08
4.09731e-08
4.70583e-09
3.64423e-08
3.93481e-08
3.63966e-08
2.9723e-07
2.99942e-07
3.03584e-07
3.05706e-07
3.06637e-07
3.05835e-07
3.03222e-07
3.75524e-08
4.6441e-09
3.15742e-09
3.01962e-07
3.0404e-07
3.05459e-07
3.05627e-07
3.04345e-07
3.0312e-07
2.97305e-07
3.6178e-08
2.55315e-08
3.95883e-08
1.49498e-09
3.68286e-08
4.67545e-08
2.31139e-08
4.14006e-08
3.0081e-07
3.04713e-07
3.05488e-07
3.06502e-07
3.06e-07
3.04326e-07
3.02011e-07
3.6927e-08
3.73804e-08
3.03686e-07
3.04776e-07
3.05874e-07
3.05435e-07
3.04161e-07
3.03595e-07
3.78829e-08
2.48553e-08
4.78353e-08
4.04643e-08
4.97665e-09
4.10869e-08
4.12324e-08
3.86741e-08
4.99318e-09
4.55225e-08
3.04913e-07
3.05371e-07
3.06336e-07
3.06446e-07
3.05039e-07
3.03787e-07
3.79785e-08
3.40255e-09
3.62682e-08
3.03431e-07
3.05391e-07
3.06329e-07
3.05326e-07
3.04118e-07
3.06519e-07
4.02796e-08
4.41198e-08
4.09963e-08
4.07729e-08
5.5719e-09
4.05345e-08
5.53645e-09
3.77981e-08
2.03289e-08
3.06998e-07
3.05217e-07
3.06043e-07
3.06803e-07
3.05614e-07
3.03577e-07
3.74201e-08
4.38549e-09
3.81377e-08
3.06345e-07
3.06251e-07
3.06733e-07
3.05164e-07
3.0326e-07
2.99863e-07
3.85451e-08
5.75503e-09
4.45115e-09
6.40356e-09
3.54246e-09
4.22999e-08
3.79772e-08
3.19019e-08
2.99464e-07
3.03699e-07
3.0544e-07
3.06939e-07
3.06354e-07
3.06437e-07
3.79435e-08
4.7511e-09
3.88148e-08
3.06412e-07
3.06338e-07
3.06902e-07
3.05463e-07
3.038e-07
2.99963e-07
3.63669e-08
3.68276e-08
4.04847e-08
4.4008e-08
3.91309e-09
2.66623e-09
5.51162e-09
3.85632e-08
3.48365e-08
2.99641e-07
3.03217e-07
3.05172e-07
3.06774e-07
3.06268e-07
3.0637e-07
3.82435e-08
4.84121e-09
3.69267e-08
3.03559e-07
3.05598e-07
3.06756e-07
3.06065e-07
3.05413e-07
3.08336e-07
4.05359e-08
4.60499e-08
3.91426e-08
6.2963e-09
3.19376e-09
3.85813e-08
6.56717e-09
6.22584e-09
3.07554e-07
3.04378e-07
3.05413e-07
3.06382e-07
3.05399e-07
3.03435e-07
3.75153e-08
4.6875e-09
3.78826e-08
3.03784e-07
3.05015e-07
3.06373e-07
3.06216e-07
3.05118e-07
3.04142e-07
3.60436e-08
2.7911e-08
6.17263e-09
3.38549e-09
4.23064e-08
5.18297e-09
4.19479e-08
4.05771e-08
4.57472e-08
3.56442e-08
3.03526e-07
3.04171e-07
3.05469e-07
3.05896e-07
3.04774e-07
3.03671e-07
3.77169e-08
5.54415e-09
5.73531e-09
3.02004e-07
3.04297e-07
3.05935e-07
3.06399e-07
3.05357e-07
3.04603e-07
3.00968e-07
3.97673e-08
3.35406e-08
3.90899e-08
3.8594e-08
5.31139e-09
6.04542e-09
4.54561e-08
2.43677e-08
2.97069e-07
3.03078e-07
3.04336e-07
3.05637e-07
3.05467e-07
3.0402e-07
3.01918e-07
3.79948e-08
2.13228e-09
1.85833e-09
3.75989e-08
3.03183e-07
3.05796e-07
3.06588e-07
3.05657e-07
3.03555e-07
2.99987e-07
2.96968e-07
4.67936e-08
2.07294e-08
3.19341e-08
3.07253e-08
6.47065e-09
3.47604e-08
2.968e-07
2.98355e-07
3.02458e-07
3.04767e-07
3.05915e-07
3.05401e-07
3.02807e-07
3.77277e-08
3.69294e-08
3.59501e-08
3.03284e-07
3.06752e-07
3.06872e-07
3.06447e-07
3.04913e-07
3.03059e-07
3.02874e-07
3.03688e-07
3.08437e-07
2.99682e-07
3.72749e-08
3.05595e-07
3.03707e-07
3.02896e-07
3.02417e-07
3.04178e-07
3.05781e-07
3.06409e-07
3.0648e-07
3.02861e-07
3.71817e-08
4.47954e-09
2.98354e-09
3.76953e-08
3.06988e-07
3.06497e-07
3.06744e-07
3.06308e-07
3.053e-07
3.04775e-07
3.05011e-07
3.05515e-07
3.0405e-07
3.03649e-07
3.03895e-07
3.03881e-07
3.04192e-07
3.04719e-07
3.05766e-07
3.06316e-07
3.06221e-07
3.06836e-07
3.81065e-08
3.74579e-08
3.69558e-08
2.99611e-07
3.03408e-07
3.06525e-07
3.06814e-07
3.06397e-07
3.06165e-07
3.06135e-07
3.06105e-07
3.05567e-07
3.05189e-07
3.05207e-07
3.0532e-07
3.05567e-07
3.05917e-07
3.0646e-07
3.06304e-07
3.03246e-07
2.99559e-07
3.78361e-08
4.09974e-09
3.48695e-08
2.99688e-07
3.06979e-07
3.06711e-07
3.05716e-07
3.05851e-07
3.06342e-07
3.06778e-07
3.06946e-07
3.06747e-07
3.06292e-07
3.05843e-07
3.05474e-07
3.05449e-07
3.0653e-07
3.06862e-07
2.9965e-07
3.59478e-08
4.42836e-09
4.05364e-08
3.80812e-08
3.03278e-07
3.03146e-07
3.04263e-07
3.05006e-07
3.05597e-07
3.0634e-07
3.06252e-07
3.05381e-07
3.04772e-07
3.0409e-07
3.0302e-07
3.03193e-07
3.81152e-08
3.78525e-08
4.42977e-09
5.88492e-09
3.76401e-08
3.75486e-08
3.02e-07
3.03801e-07
3.03524e-07
3.06375e-07
3.06331e-07
3.03414e-07
3.03662e-07
3.01952e-07
3.77443e-08
3.73808e-08
3.73923e-08
4.08656e-09
1.13085e-09
4.64455e-09
3.69146e-08
3.79924e-08
3.74167e-08
3.79369e-08
3.82406e-08
3.75164e-08
3.77149e-08
3.79873e-08
3.69241e-08
4.46058e-09
3.39965e-09
4.38611e-09
4.7523e-09
4.83963e-09
4.68579e-09
5.5605e-09
2.12164e-09
3.27269e-09
3.71056e-08
3.59331e-08
3.7855e-08
3.84811e-08
3.66632e-08
3.76467e-08
5.66597e-09
2.03822e-09
3.62252e-08
3.70792e-08
2.99948e-07
3.02193e-07
3.01682e-07
3.04903e-07
3.04928e-07
3.01724e-07
3.02225e-07
3.00036e-07
3.74501e-08
3.52865e-08
2.91859e-09
3.79467e-08
3.0021e-07
2.99717e-07
3.01661e-07
3.0329e-07
3.04198e-07
3.05145e-07
3.0518e-07
3.04281e-07
3.03389e-07
3.01758e-07
2.99785e-07
3.00277e-07
3.75629e-08
3.69238e-08
2.87858e-09
2.96526e-07
3.03187e-07
3.0358e-07
3.03126e-07
3.04004e-07
3.05132e-07
3.05995e-07
3.06494e-07
3.06561e-07
3.06165e-07
3.05347e-07
3.04197e-07
3.03278e-07
3.03747e-07
3.03344e-07
2.96465e-07
3.52558e-08
2.96505e-07
2.97062e-07
3.02361e-07
3.04006e-07
3.04443e-07
3.04731e-07
3.04937e-07
3.05077e-07
3.04695e-07
3.0476e-07
3.05261e-07
3.05214e-07
3.04999e-07
3.0472e-07
3.0428e-07
3.02603e-07
2.97197e-07
2.96503e-07
4.07345e-08
3.79749e-08
3.03216e-07
3.02451e-07
3.03775e-07
3.04049e-07
3.03442e-07
3.03266e-07
3.03572e-07
3.04053e-07
3.02389e-07
3.02368e-07
3.04074e-07
3.03785e-07
3.03424e-07
3.03728e-07
3.04417e-07
3.04112e-07
3.02652e-07
3.0336e-07
3.7801e-08
5.83092e-09
3.62417e-08
3.00179e-07
3.03581e-07
3.0406e-07
3.04083e-07
3.02639e-07
3.00808e-07
3.01226e-07
3.02309e-07
3.08294e-07
2.98336e-07
2.96966e-07
3.05928e-07
3.02146e-07
3.00981e-07
3.00974e-07
3.03027e-07
3.04545e-07
3.04429e-07
3.03848e-07
3.0041e-07
3.73617e-08
2.21159e-09
3.71159e-08
2.99698e-07
3.03107e-07
3.04483e-07
3.03519e-07
3.00908e-07
2.96191e-07
2.94459e-07
3.73964e-08
4.57654e-08
3.74825e-08
3.5945e-08
3.98764e-08
3.62313e-08
2.93871e-07
2.96193e-07
3.01291e-07
3.04057e-07
3.04999e-07
3.03471e-07
2.99926e-07
3.70609e-08
4.62962e-09
3.27716e-09
2.99921e-07
3.01641e-07
3.04004e-07
3.04783e-07
3.03387e-07
3.01478e-07
2.95227e-07
3.59231e-08
2.48105e-08
3.74261e-08
3.59546e-08
3.60059e-08
4.62417e-08
2.24409e-08
4.19495e-08
2.94203e-07
3.01647e-07
3.0392e-07
3.05354e-07
3.04411e-07
3.01844e-07
2.99918e-07
3.64995e-08
3.70918e-08
3.02153e-07
3.03266e-07
3.05139e-07
3.04972e-07
3.03666e-07
3.02376e-07
3.7526e-08
2.53327e-08
3.31073e-07
3.05498e-07
3.7475e-08
3.00818e-07
3.079e-07
3.33131e-07
2.63868e-08
4.64911e-08
3.02604e-07
3.04152e-07
3.05492e-07
3.05545e-07
3.03484e-07
3.02248e-07
3.77609e-08
3.36277e-09
3.5925e-08
3.01674e-07
3.04185e-07
3.05982e-07
3.05021e-07
3.03896e-07
3.06301e-07
4.60336e-08
3.52576e-08
3.02288e-07
3.00655e-07
3.66708e-08
3.66462e-08
3.73331e-08
3.71519e-08
3.76458e-08
2.03348e-08
3.05984e-07
3.04125e-07
3.05367e-07
3.06301e-07
3.04389e-07
3.01862e-07
3.71129e-08
4.36084e-09
3.78479e-08
3.04938e-07
3.05161e-07
3.06488e-07
3.04631e-07
3.02256e-07
2.97394e-07
3.70964e-08
3.55367e-08
3.68306e-08
3.78835e-08
4.98849e-09
3.97873e-09
3.83182e-08
3.7032e-08
3.68865e-08
3.22535e-08
2.97159e-07
3.02239e-07
3.0474e-07
3.06623e-07
3.05262e-07
3.0506e-07
3.771e-08
4.6939e-09
3.84936e-08
3.05033e-07
3.05237e-07
3.06597e-07
3.04753e-07
3.02338e-07
2.97382e-07
3.60678e-08
3.62449e-08
3.68221e-08
3.77034e-08
4.0444e-09
4.7978e-09
3.61155e-08
3.58585e-08
3.61707e-08
2.97394e-07
3.02228e-07
3.04639e-07
3.06512e-07
3.05183e-07
3.04964e-07
3.80336e-08
4.7595e-09
3.66907e-08
3.01847e-07
3.04365e-07
3.06259e-07
3.05362e-07
3.04228e-07
3.06306e-07
3.97915e-08
4.62058e-08
3.73475e-08
3.60703e-08
3.93068e-08
4.48064e-09
3.00663e-07
3.03008e-07
3.75881e-08
2.02591e-08
3.06748e-07
3.04007e-07
3.05057e-07
3.06002e-07
3.04192e-07
3.01679e-07
3.72237e-08
4.63696e-09
3.76544e-08
3.02254e-07
3.03456e-07
3.05466e-07
3.05349e-07
3.03811e-07
3.01432e-07
3.58795e-08
2.29183e-08
3.32274e-07
3.07932e-07
3.00555e-07
3.90626e-08
3.05294e-07
3.31837e-07
4.44026e-08
3.34153e-08
3.01674e-07