/*--------------------------------*- C++ -*----------------------------------*\
  =========                 |
  \\      /  F ield         | OpenFOAM: The Open Source CFD Toolbox
   \\    /   O peration     | Website:  https://openfoam.org
    \\  /    A nd           | Version:  9
     \\/     M anipulation  |
\*---------------------------------------------------------------------------*/
FoamFile
{
    format      ascii;
    class       volVectorField;
    location    "0";
    object      C;
}
// * * * * * * * * * * * * * * * * * * * * * * * * * * * * * * * * * * * * * //

dimensions      [0 1 0 0 0 0 0];

internalField   nonuniform List<vector> 
66832
(
(-0.00854505 -0.018346 -0.0386229)
(0.00125132 -0.0184205 -0.0386325)
(-0.0183437 -0.00854634 -0.0386228)
(-0.00875031 -0.00875056 -0.0386959)
(0.00125209 -0.00876302 -0.0388943)
(0.0112315 -0.00873245 -0.0385909)
(-0.0184197 0.00125199 -0.0386327)
(-0.00876332 0.00125185 -0.0388949)
(0.00125327 0.00125346 -0.039114)
(0.0112574 0.00125146 -0.0387585)
(-0.00873239 0.0112314 -0.0385908)
(0.00125103 0.0112583 -0.0387577)
(0.0112018 0.0112033 -0.0385484)
(-0.00875864 -0.0585635 -0.0286742)
(0.0012547 -0.0586456 -0.0288415)
(0.0110437 -0.0585676 -0.0287009)
(-0.0288127 -0.0488627 -0.0291187)
(-0.0176025 -0.0478173 -0.0283673)
(-0.00753229 -0.047782 -0.0283411)
(0.00251009 -0.0478105 -0.0284218)
(0.0126251 -0.0478062 -0.0283483)
(0.0214031 -0.0490055 -0.029596)
(0.0312645 -0.0487915 -0.0289351)
(-0.0389416 -0.0389423 -0.0294927)
(-0.027684 -0.0377465 -0.0284251)
(-0.0176422 -0.0377916 -0.0284498)
(-0.00756095 -0.0377882 -0.0283897)
(0.0025195 -0.0378049 -0.0284167)
(0.012608 -0.0377795 -0.0284036)
(0.0226596 -0.0377698 -0.0284626)
(0.0327064 -0.0378099 -0.0284553)
(0.0413323 -0.0388276 -0.0293094)
(-0.0488634 -0.0288131 -0.0291183)
(-0.0377467 -0.0276832 -0.0284244)
(-0.02774 -0.0277384 -0.0284662)
(-0.0177425 -0.0278422 -0.0284431)
(-0.00761984 -0.027889 -0.0283299)
(0.00254247 -0.0278751 -0.0282993)
(0.0126857 -0.027871 -0.0283736)
(0.0227565 -0.0277934 -0.0285026)
(0.0327453 -0.0277165 -0.0284408)
(0.0427865 -0.0277259 -0.0284282)
(0.0511189 -0.0287556 -0.0288452)
(-0.047818 -0.017603 -0.0283682)
(-0.0377917 -0.0176407 -0.0284509)
(-0.0278417 -0.0177398 -0.0284447)
(-0.0178373 -0.0178347 -0.0282864)
(-0.00763623 -0.017787 -0.0280858)
(0.00254392 -0.0177633 -0.0280436)
(0.0127366 -0.017807 -0.0281748)
(0.0228667 -0.0178068 -0.0283807)
(0.0327844 -0.0176686 -0.0284455)
(0.0427576 -0.0176146 -0.028421)
(0.051455 -0.018833 -0.0295561)
(-0.058563 -0.00875803 -0.0286744)
(-0.0477814 -0.00753233 -0.0283423)
(-0.0377843 -0.0075596 -0.0283911)
(-0.0278741 -0.00761803 -0.0283272)
(-0.0177795 -0.00763802 -0.0280863)
(-0.00758116 -0.00758196 -0.0278578)
(0.00252254 -0.00756205 -0.0278397)
(0.0126649 -0.0076044 -0.0279269)
(0.0228447 -0.00763153 -0.0282271)
(0.032849 -0.00758901 -0.0284033)
(0.0427814 -0.00754639 -0.0283426)
(0.0515537 -0.0087855 -0.0296489)
(-0.0586452 0.00125507 -0.0288429)
(-0.0478085 0.00251057 -0.0284229)
(-0.0377968 0.00251907 -0.0284181)
(-0.0278464 0.0025381 -0.0282943)
(-0.0177447 0.00253869 -0.0280408)
(-0.00756005 0.00252058 -0.027838)
(0.00251915 0.00251945 -0.0278382)
(0.0126459 0.00253958 -0.0278881)
(0.0228378 0.00255035 -0.0282052)
(0.032869 0.00252919 -0.0283901)
(0.0428047 0.00251246 -0.0283876)
(0.0516147 0.00125539 -0.0298231)
(-0.0585663 0.0110446 -0.0287019)
(-0.0478038 0.0126248 -0.0283481)
(-0.0377736 0.012607 -0.0284038)
(-0.0278535 0.012677 -0.028364)
(-0.0177946 0.012727 -0.0281673)
(-0.0076034 0.0126635 -0.0279273)
(0.0025344 0.0126454 -0.0278892)
(0.0127301 0.0127309 -0.0280411)
(0.0228839 0.0127394 -0.028289)
(0.0328351 0.0126396 -0.0284366)
(0.0427736 0.0125954 -0.0283882)
(0.0515304 0.0112991 -0.0295916)
(-0.049005 0.0214032 -0.0295984)
(-0.037767 0.0226579 -0.0284601)
(-0.027784 0.0227444 -0.0284477)
(-0.0177924 0.0228553 -0.0283632)
(-0.00763795 0.0228597 -0.0282296)
(0.00254269 0.0228548 -0.0282098)
(0.012735 0.0228867 -0.0282911)
(0.0228501 0.0228501 -0.028483)
(0.0327628 0.02269 -0.0284419)
(0.0427427 0.0226275 -0.0283619)
(0.0514245 0.0213245 -0.0293776)
(-0.0487897 0.031264 -0.028935)
(-0.0378095 0.0327063 -0.0284569)
(-0.0277127 0.0327443 -0.0284335)
(-0.0176665 0.0327856 -0.0284411)
(-0.00759373 0.0328612 -0.0284032)
(0.00252329 0.0328804 -0.0283922)
(0.012636 0.0328384 -0.0284367)
(0.0226888 0.0327641 -0.0284422)
(0.0327104 0.0327114 -0.0284277)
(0.0415966 0.0315209 -0.0298621)
(0.0509732 0.0311205 -0.0286382)
(-0.0388268 0.0413339 -0.02931)
(-0.0277253 0.0427874 -0.0284296)
(-0.0176137 0.0427586 -0.028421)
(-0.00754661 0.042784 -0.0283415)
(0.00251118 0.0428069 -0.0283861)
(0.0125938 0.0427744 -0.028387)
(0.0226266 0.0427432 -0.0283613)
(0.0315209 0.0415978 -0.0298648)
(0.0411675 0.041169 -0.0291775)
(-0.0287569 0.0511193 -0.0288474)
(-0.0188327 0.0514552 -0.029555)
(-0.00878483 0.0515553 -0.0296506)
(0.00125596 0.0516148 -0.0298228)
(0.0113 0.0515294 -0.0295908)
(0.0213245 0.0514239 -0.0293776)
(0.0311196 0.050973 -0.0286373)
(-0.0278483 -0.0682722 -0.0184158)
(-0.0176931 -0.0682279 -0.0183955)
(-0.00758646 -0.0681753 -0.0184037)
(0.00253031 -0.0681385 -0.0183552)
(0.0126356 -0.0682021 -0.0183955)
(0.0227942 -0.0682835 -0.01842)
(0.0315761 -0.0693501 -0.0194396)
(-0.049115 -0.0591163 -0.0191437)
(-0.0379079 -0.0581114 -0.0184249)
(-0.0252291 -0.0555019 -0.0157739)
(-0.0151272 -0.0554563 -0.0157611)
(-0.00503647 -0.0554453 -0.0157586)
(0.00503794 -0.0554404 -0.015758)
(0.0151279 -0.0554479 -0.0157592)
(0.0252324 -0.0555018 -0.0157734)
(0.0328264 -0.0580642 -0.0183922)
(0.0429902 -0.0581656 -0.0183792)
(0.0512804 -0.058577 -0.0184836)
(-0.0591178 -0.0491134 -0.0191436)
(-0.047957 -0.0479562 -0.0183461)
(-0.0352917 -0.0453671 -0.0157827)
(-0.0251764 -0.045301 -0.0157425)
(-0.0151027 -0.0452734 -0.0157296)
(-0.00503639 -0.0453048 -0.0157255)
(0.00503784 -0.04529 -0.0157247)
(0.0151007 -0.0452415 -0.0157243)
(0.0251759 -0.0452839 -0.0157385)
(0.0352931 -0.0453656 -0.0157815)
(0.0428689 -0.0479142 -0.018345)
(0.0530758 -0.0480269 -0.018393)
(-0.0581182 -0.037911 -0.0184284)
(-0.0453705 -0.0352908 -0.0157846)
(-0.0352521 -0.0352468 -0.0157718)
(-0.0251714 -0.0352201 -0.0157576)
(-0.017638 -0.0377534 -0.0183968)
(-0.00758492 -0.0378953 -0.0184253)
(0.00253838 -0.0379717 -0.0184328)
(0.0126172 -0.0377943 -0.0184183)
(0.0251707 -0.0352005 -0.01575)
(0.0352544 -0.0352478 -0.0157701)
(0.0453657 -0.0352911 -0.0157817)
(0.0529857 -0.0378456 -0.0183908)
(0.0632768 -0.0379894 -0.0184247)
(-0.0682859 -0.0278566 -0.0184214)
(-0.055509 -0.0252319 -0.0157778)
(-0.0453053 -0.025172 -0.0157485)
(-0.0352236 -0.0251525 -0.0157596)
(-0.0278712 -0.0278568 -0.0184822)
(-0.0191282 -0.0292391 -0.0199282)
(-0.00913603 -0.0298997 -0.0198878)
(0.00131342 -0.0297274 -0.0195453)
(0.0116761 -0.0297403 -0.0198909)
(0.0229497 -0.0280167 -0.018597)
(0.0352165 -0.0251718 -0.0157593)
(0.0452877 -0.0251753 -0.0157419)
(0.0554971 -0.0252289 -0.0157735)
(0.063157 -0.0278019 -0.0184084)
(0.0714783 -0.0289485 -0.0189787)
(-0.0682287 -0.0176942 -0.0183961)
(-0.0554598 -0.0151276 -0.0157666)
(-0.0452801 -0.0150994 -0.0157454)
(-0.0377561 -0.0176263 -0.0184089)
(-0.0292445 -0.019114 -0.019931)
(-0.0199215 -0.0198907 -0.0194293)
(-0.00775633 -0.0178871 -0.0176984)
(0.0026599 -0.0178674 -0.0176583)
(0.0116651 -0.0193423 -0.0189651)
(0.0224937 -0.0198883 -0.019763)
(0.0327863 -0.0177059 -0.018527)
(0.0452375 -0.0151009 -0.0157302)
(0.055446 -0.0151264 -0.0157612)
(0.0630722 -0.0176692 -0.018365)
(0.0720663 -0.0189388 -0.0197061)
(-0.0681751 -0.00758714 -0.0184043)
(-0.0554462 -0.00503617 -0.0157651)
(-0.0453043 -0.00503575 -0.0157444)
(-0.0378839 -0.00758208 -0.0184431)
(-0.0298724 -0.00913834 -0.0198892)
(-0.0178342 -0.00778705 -0.0177805)
(-0.00763788 -0.00758437 -0.0176496)
(0.00127733 -0.00879939 -0.0188884)
(0.0127254 -0.00759264 -0.0176338)
(0.0219432 -0.00909431 -0.0189994)
(0.0319668 -0.00897726 -0.0198767)
(0.0452812 -0.00503707 -0.015739)
(0.0554387 -0.00503699 -0.0157627)
(0.063066 -0.00756588 -0.0183829)
(0.0732759 -0.00756872 -0.0182976)
(-0.0681384 0.00252941 -0.018356)
(-0.0554378 0.00503791 -0.0157627)
(-0.0452793 0.00503879 -0.0157395)
(-0.0379486 0.0025381 -0.0184564)
(-0.0296319 0.00130062 -0.0195345)
(-0.0177688 0.00258973 -0.0177207)
(-0.00879799 0.00126111 -0.0188553)
(0.00125205 0.00125222 -0.0188383)
(0.0113129 0.00126645 -0.0188541)
(0.021696 0.00129374 -0.0189251)
(0.0321023 0.00128802 -0.0197683)
(0.0453038 0.00504003 -0.0157459)
(0.0554465 0.00503743 -0.0157659)
(0.0630659 0.00252216 -0.0183974)
(0.0733315 0.00252232 -0.0183223)
(-0.0682018 0.0126347 -0.0183955)
(-0.0554443 0.0151262 -0.0157611)
(-0.0452322 0.0150991 -0.0157307)
(-0.0377723 0.0126198 -0.0184303)
(-0.0296767 0.0116545 -0.019894)
(-0.0180745 0.0129082 -0.0177371)
(-0.00756544 0.01268 -0.0176442)
(0.00125917 0.0113093 -0.0188655)
(0.0128684 0.0128705 -0.0176576)
(0.0221516 0.0118191 -0.0190822)
(0.0330573 0.012732 -0.0186142)
(0.0452795 0.0151068 -0.0157498)
(0.05546 0.0151295 -0.0157677)
(0.0630623 0.0126105 -0.0183573)
(0.0732172 0.0126752 -0.0182901)
(-0.0682804 0.0227922 -0.0184183)
(-0.0554956 0.0252289 -0.0157727)
(-0.0452821 0.0251735 -0.0157419)
(-0.035206 0.0251655 -0.0157586)
(-0.028003 0.0229368 -0.0185932)
(-0.0197821 0.0223787 -0.019723)
(-0.00782279 0.0233249 -0.0178309)
(0.00259913 0.0231142 -0.0177471)
(0.0117985 0.022156 -0.0190904)
(0.0223733 0.0223608 -0.019989)
(0.0352208 0.0251703 -0.0157655)
(0.0453041 0.0251783 -0.0157517)
(0.0555088 0.0252328 -0.0157787)
(0.0631079 0.0227225 -0.0183791)
(0.0719794 0.0214548 -0.0195462)
(-0.0693343 0.0315583 -0.0194381)
(-0.0580547 0.0328218 -0.0183882)
(-0.0453631 0.0352915 -0.0157822)
(-0.0352453 0.0352478 -0.0157706)
(-0.0251584 0.0352005 -0.0157511)
(-0.017698 0.032794 -0.0185241)
(-0.00899353 0.0320195 -0.0198704)
(0.00126108 0.0321459 -0.0197729)
(0.0127125 0.0330646 -0.0186063)
(0.0251583 0.035238 -0.0157616)
(0.0352487 0.0352575 -0.0157753)
(0.04537 0.0352939 -0.0157861)
(0.0529626 0.032796 -0.0183714)
(0.063268 0.0329244 -0.0184932)
(0.0711885 0.0312259 -0.0186697)
(-0.0581637 0.0429902 -0.0183784)
(-0.0479129 0.0428695 -0.018345)
(-0.0352889 0.0453658 -0.0157814)
(-0.0251692 0.045285 -0.0157393)
(-0.015098 0.0452415 -0.0157264)
(-0.00504149 0.045289 -0.0157262)
(0.00503027 0.0453085 -0.0157289)
(0.0150941 0.0452823 -0.0157336)
(0.0251705 0.0453088 -0.0157451)
(0.0352901 0.0453706 -0.015784)
(0.0428568 0.0428576 -0.0183724)
(0.0530173 0.0429129 -0.0183535)
(0.0619853 0.0417173 -0.0196618)
(-0.058575 0.0512825 -0.0184838)
(-0.0480255 0.0530777 -0.0183931)
(-0.037846 0.0529894 -0.0183923)
(-0.0252303 0.0555023 -0.0157733)
(-0.0151263 0.0554487 -0.0157603)
(-0.0050383 0.0554412 -0.0157591)
(0.00503476 0.0554476 -0.0157598)
(0.0151253 0.0554597 -0.0157618)
(0.0252275 0.0555043 -0.0157741)
(0.0327926 0.0529581 -0.0183675)
(0.0429122 0.0530152 -0.0183525)
(0.0518476 0.0518455 -0.0197527)
(-0.0379981 0.0632914 -0.0184333)
(-0.0278083 0.063169 -0.018412)
(-0.0176704 0.0630741 -0.0183658)
(-0.0075665 0.0630669 -0.0183828)
(0.00252149 0.0630662 -0.0183962)
(0.0126094 0.063062 -0.0183559)
(0.0227195 0.0631036 -0.0183766)
(0.0329123 0.0632436 -0.0184842)
(0.0417172 0.0619843 -0.0196627)
(-0.0289525 0.0714848 -0.018977)
(-0.0189402 0.0720666 -0.0197068)
(-0.00756995 0.0732765 -0.018298)
(0.0025211 0.0733315 -0.0183219)
(0.012674 0.0732167 -0.0182896)
(0.0214535 0.0719788 -0.0195454)
(0.0311932 0.0711861 -0.0186788)
(-0.0190054 -0.0797672 -0.00909181)
(-0.00760921 -0.0786995 -0.00785451)
(0.00255773 -0.0786931 -0.00786184)
(0.0126901 -0.0785814 -0.00786174)
(0.0214381 -0.0794761 -0.00896884)
(-0.0380406 -0.0684676 -0.00788184)
(-0.0253163 -0.0658297 -0.00545931)
(-0.0151833 -0.0658231 -0.00547391)
(-0.00506332 -0.0658098 -0.00548169)
(0.00506499 -0.065808 -0.00548221)
(0.0151849 -0.065821 -0.00547558)
(0.0253226 -0.0658349 -0.00546643)
(0.0329763 -0.0684752 -0.00795701)
(0.0418681 -0.0697695 -0.00912355)
(-0.0586645 -0.0586642 -0.00861784)
(-0.0455682 -0.0557173 -0.00545435)
(-0.0354025 -0.0556443 -0.00550096)
(-0.0252526 -0.0555543 -0.00549804)
(-0.0151303 -0.0554896 -0.00548341)
(-0.00504352 -0.0554646 -0.00547952)
(0.00504625 -0.0554542 -0.00547976)
(0.0151324 -0.0554727 -0.00548473)
(0.0252587 -0.05555 -0.00550255)
(0.0354072 -0.0556491 -0.00550664)
(0.0455707 -0.0557178 -0.00545607)
(0.0532187 -0.0583284 -0.00790235)
(-0.0557182 -0.0455695 -0.00545568)
(-0.0454745 -0.045474 -0.00551208)
(-0.0352833 -0.0453662 -0.00550158)
(-0.0251307 -0.0452375 -0.00546497)
(-0.0150648 -0.0451465 -0.0054314)
(-0.00502511 -0.0451482 -0.00540863)
(0.00503093 -0.0451016 -0.00540954)
(0.0150598 -0.0450636 -0.00543053)
(0.0251359 -0.0452066 -0.00546723)
(0.0352907 -0.0453641 -0.00550348)
(0.0454754 -0.0454741 -0.00551188)
(0.0557168 -0.0455679 -0.00545526)
(0.0634756 -0.0482501 -0.00786652)
(-0.0684862 -0.0380475 -0.00789772)
(-0.0556524 -0.0354053 -0.00550754)
(-0.0453708 -0.0352829 -0.00550647)
(-0.0351347 -0.0351294 -0.0054542)
(-0.0249914 -0.0349676 -0.00539309)
(-0.0174952 -0.0374586 -0.00796985)
(-0.0075126 -0.0375029 -0.00791843)
(0.00250949 -0.0375077 -0.00791842)
(0.0124741 -0.0372989 -0.00792246)
(0.0249961 -0.0348931 -0.00539899)
(0.0351512 -0.0351363 -0.00545427)
(0.0453647 -0.035285 -0.00550234)
(0.0556419 -0.0354029 -0.00550152)
(0.0633785 -0.0380367 -0.00799647)
(0.0721383 -0.0392022 -0.00906346)
(-0.065837 -0.0253231 -0.00546717)
(-0.055563 -0.0252555 -0.00550719)
(-0.0452465 -0.0251262 -0.00547867)
(-0.0349544 -0.024947 -0.00541045)
(-0.0275082 -0.0274837 -0.0079408)
(-0.0187138 -0.0285758 -0.009225)
(-0.008983 -0.029292 -0.00909745)
(0.00128125 -0.0288352 -0.00906865)
(0.0113487 -0.0289478 -0.00914805)
(0.022371 -0.0272362 -0.00769105)
(0.034998 -0.0250246 -0.00540765)
(0.0452119 -0.0251323 -0.00546653)
(0.0555429 -0.0252522 -0.00549899)
(0.0658273 -0.025316 -0.00545919)
(0.0735311 -0.0278941 -0.0078981)
(-0.079766 -0.0190051 -0.00909232)
(-0.0658253 -0.0151847 -0.00547736)
(-0.0554971 -0.0151304 -0.00549419)
(-0.0451683 -0.0150631 -0.00545691)
(-0.0374753 -0.0174704 -0.00800828)
(-0.02852 -0.0185901 -0.00917502)
(-0.0182672 -0.0182168 -0.00771179)
(-0.00913483 -0.0191525 -0.00938018)
(0.00257191 -0.0174875 -0.00788539)
(0.0116806 -0.0190745 -0.00938991)
(0.0215917 -0.0188966 -0.00873552)
(0.032258 -0.0174647 -0.00793252)
(0.0450591 -0.0150489 -0.00543425)
(0.055466 -0.0151262 -0.00548642)
(0.0658182 -0.0151824 -0.00547443)
(0.0735514 -0.0177613 -0.00793541)
(-0.0787003 -0.00760972 -0.0078551)
(-0.0658099 -0.00506344 -0.00548417)
(-0.0554657 -0.00504197 -0.00549029)
(-0.045155 -0.0050219 -0.00543743)
(-0.0375279 -0.0075193 -0.0079796)
(-0.029357 -0.00903343 -0.00910745)
(-0.0193139 -0.00891028 -0.00978778)
(-0.00873075 -0.00840743 -0.00947681)
(0.000830616 -0.00826546 -0.00925257)
(0.0116889 -0.00797815 -0.00944825)
(0.0232667 -0.00806972 -0.00756417)
(0.0309755 -0.00853765 -0.00911958)
(0.0450922 -0.00502029 -0.00543024)
(0.055449 -0.005042 -0.00548797)
(0.0658066 -0.00506361 -0.00548367)
(0.0735488 -0.00761434 -0.00795753)
(0.0819316 -0.00884185 -0.00897441)
(-0.0786927 0.0025569 -0.00786112)
(-0.0658059 0.00506471 -0.00548314)
(-0.0554458 0.00504553 -0.00548589)
(-0.0450834 0.00502722 -0.00542538)
(-0.03749 0.00251168 -0.00796158)
(-0.0276228 0.00249562 -0.0078074)
(-0.0175864 0.00246557 -0.00782077)
(-0.00829001 0.0010877 -0.0090588)
(0.0107877 0.0010403 -0.00888377)
(0.0217197 0.00131852 -0.00961619)
(0.031269 0.00117948 -0.00910014)
(0.0451539 0.00502438 -0.00544479)
(0.0554661 0.0050436 -0.00549339)
(0.0658104 0.00506348 -0.00548516)
(0.0735325 0.002544 -0.00796104)
(0.082186 0.00126082 -0.00901515)
(-0.0785827 0.0126907 -0.00786159)
(-0.0658171 0.0151835 -0.0054746)
(-0.0554619 0.0151287 -0.00548551)
(-0.0450466 0.0150514 -0.00543363)
(-0.037293 0.0124648 -0.00793869)
(-0.0289745 0.011375 -0.00917385)
(-0.0187077 0.0119887 -0.00959463)
(-0.00915525 0.01053 -0.00903302)
(0.0126725 0.0125371 -0.00776832)
(0.0219137 0.011693 -0.0093652)
(0.0326264 0.0126108 -0.00804673)
(0.0451657 0.0150662 -0.00546747)
(0.0554969 0.0151311 -0.00549829)
(0.0658264 0.0151838 -0.00547826)
(0.0735435 0.0126828 -0.00795331)
(0.0817135 0.0113317 -0.00890463)
(-0.0794761 0.0214378 -0.00896924)
(-0.0658267 0.0253167 -0.00545891)
(-0.0555396 0.0252533 -0.00549857)
(-0.0452014 0.0251319 -0.00546742)
(-0.0349747 0.0250205 -0.00541339)
(-0.027554 0.0225647 -0.0079256)
(-0.0192692 0.0219265 -0.00913746)
(-0.00773637 0.0230005 -0.00778094)
(0.00169366 0.0215237 -0.0094182)
(0.0127909 0.0230874 -0.0077488)
(0.0217143 0.0217453 -0.00913926)
(0.0349379 0.0249703 -0.00542338)
(0.0452439 0.0251299 -0.00548547)
(0.055563 0.0252558 -0.00551024)
(0.0658385 0.0253224 -0.00546767)
(0.0735398 0.02283 -0.00791849)
(-0.0684479 0.0329603 -0.00793068)
(-0.0556399 0.0354039 -0.00550059)
(-0.0453577 0.035287 -0.00550283)
(-0.0351337 0.0351416 -0.00545675)
(-0.0249518 0.0349157 -0.00540019)
(-0.0173763 0.0322071 -0.00792795)
(-0.00855112 0.0309344 -0.00913591)
(0.00120213 0.0312515 -0.0090935)
(0.0124819 0.0325003 -0.00789222)
(0.0249656 0.0349946 -0.00540765)
(0.0351274 0.0351413 -0.0054623)
(0.0453699 0.0352866 -0.00551011)
(0.055653 0.0354057 -0.00550898)
(0.0633523 0.0329541 -0.00803878)
(0.0723188 0.0317301 -0.009187)
(-0.0697666 0.0418674 -0.00911754)
(-0.0557152 0.0455698 -0.00545331)
(-0.0454709 0.0454756 -0.00551152)
(-0.0352811 0.0453666 -0.00550405)
(-0.0251193 0.045212 -0.00546884)
(-0.0150457 0.045071 -0.00543561)
(-0.00502944 0.0451066 -0.00541508)
(0.00501822 0.0451612 -0.00541368)
(0.0150505 0.0451698 -0.00543778)
(0.0251211 0.0452534 -0.00547052)
(0.0352801 0.0453727 -0.00550527)
(0.0454753 0.0454759 -0.00551369)
(0.0557203 0.0455692 -0.0054566)
(0.0634447 0.0431428 -0.00796299)
(0.0716125 0.0413842 -0.0088956)
(-0.0583279 0.0532192 -0.00790101)
(-0.0455676 0.0557194 -0.00545533)
(-0.0354037 0.0556509 -0.00550595)
(-0.0252532 0.0555524 -0.0055028)
(-0.0151276 0.0554763 -0.00548639)
(-0.00504494 0.0554586 -0.00548187)
(0.00504119 0.0554722 -0.00548168)
(0.0151266 0.0554994 -0.00548635)
(0.02525 0.0555608 -0.00550029)
(0.0354024 0.0556464 -0.00550179)
(0.0455699 0.0557169 -0.00545526)
(0.0532019 0.0531997 -0.00794125)
(0.0623158 0.0520969 -0.00916382)
(-0.0482509 0.0634779 -0.00786549)
(-0.0380416 0.0633952 -0.00800646)
(-0.0253218 0.0658359 -0.00546537)
(-0.0151837 0.065822 -0.00547518)
(-0.00506419 0.0658097 -0.00548216)
(0.0050634 0.0658121 -0.00548222)
(0.0151825 0.0658261 -0.00547484)
(0.0253169 0.0658317 -0.00545985)
(0.032943 0.0633304 -0.00802173)
(0.0431426 0.0634398 -0.00795896)
(0.0520978 0.0623145 -0.00916419)
(-0.0392069 0.0721441 -0.00907585)
(-0.0278982 0.0735369 -0.00790242)
(-0.0177622 0.0735514 -0.00793581)
(-0.00761438 0.0735497 -0.00795707)
(0.00254432 0.0735324 -0.00796029)
(0.0126831 0.0735437 -0.00795285)
(0.022828 0.0735377 -0.00791757)
(0.0317192 0.0722999 -0.00916846)
(0.0413835 0.0716115 -0.00888944)
(-0.00884092 0.0819327 -0.00897381)
(0.00126064 0.0821856 -0.00901491)
(0.011334 0.0817152 -0.00890453)
(-0.0284898 -0.0784997 0.00125857)
(-0.0177813 -0.078471 0.00245939)
(-0.00764631 -0.0786808 0.00243793)
(0.00260841 -0.0783189 0.0024138)
(0.0126235 -0.078548 0.00244562)
(0.021497 -0.0798641 0.00123161)
(-0.0379292 -0.068273 0.0024281)
(-0.0252784 -0.0657432 0.00485008)
(-0.0151726 -0.0658081 0.00482439)
(-0.00506619 -0.0658008 0.00480878)
(0.00506854 -0.0658002 0.00480783)
(0.0151747 -0.0658077 0.00482211)
(0.0252807 -0.0657439 0.00484717)
(0.0328904 -0.0682819 0.00239121)
(0.0429638 -0.0681865 0.00246194)
(-0.0589088 -0.0589113 0.00124172)
(-0.0454557 -0.0555826 0.00486258)
(-0.0353581 -0.0555895 0.00480317)
(-0.0252265 -0.0555206 0.00477732)
(-0.015123 -0.0554689 0.00477484)
(-0.0050449 -0.0554476 0.00477487)
(0.0050494 -0.0554455 0.00477174)
(0.0151292 -0.0554648 0.00476891)
(0.0252335 -0.0555191 0.00477293)
(0.0353634 -0.0555898 0.00480048)
(0.0454624 -0.0555823 0.00486127)
(0.0530538 -0.0580744 0.00244581)
(-0.0555805 -0.0454578 0.00486187)
(-0.0454196 -0.0454214 0.0047884)
(-0.03524 -0.045322 0.00476391)
(-0.0251036 -0.0451917 0.00477997)
(-0.015047 -0.0450679 0.00482029)
(-0.00503108 -0.0450791 0.00484124)
(0.00503741 -0.0450825 0.00483156)
(0.0150649 -0.045066 0.00480446)
(0.0251217 -0.0451878 0.00477373)
(0.035249 -0.0453227 0.00476273)
(0.0454232 -0.0454216 0.00478841)
(0.0555844 -0.0454563 0.00486138)
(0.06318 -0.0479615 0.00244492)
(-0.0682727 -0.0379319 0.00242825)
(-0.0555901 -0.0353601 0.00480015)
(-0.0453213 -0.0352427 0.00476077)
(-0.0350544 -0.0350613 0.00478815)
(-0.024918 -0.0348806 0.00485044)
(-0.0174602 -0.0373414 0.00235708)
(-0.00752079 -0.0373309 0.00242424)
(0.00251837 -0.0374476 0.00240934)
(0.0125005 -0.0372287 0.00237958)
(0.0249596 -0.0348747 0.00484493)
(0.0350665 -0.0350687 0.00479371)
(0.0453168 -0.0352454 0.00476453)
(0.0555861 -0.0353596 0.00480256)
(0.0632617 -0.0379552 0.00236247)
(0.0720758 -0.0391754 0.00122725)
(-0.0784971 -0.0284939 0.00125751)
(-0.0657442 -0.0252817 0.0048473)
(-0.055524 -0.0252275 0.00477169)
(-0.0451989 -0.0251055 0.00477108)
(-0.0348752 -0.0249328 0.00484181)
(-0.0271863 -0.0272072 0.00240632)
(-0.0171889 -0.0273563 0.00268089)
(-0.00911561 -0.0293233 0.00125121)
(0.00238958 -0.0276102 0.00275399)
(0.011266 -0.0286569 0.00125481)
(0.0218633 -0.0267888 0.00257851)
(0.0348523 -0.0249499 0.00486635)
(0.0451649 -0.0251083 0.00477819)
(0.0555081 -0.0252266 0.0047751)
(0.0657398 -0.0252778 0.00484941)
(0.073223 -0.0277751 0.00243625)
(-0.0784711 -0.0177835 0.00245853)
(-0.0658092 -0.0151735 0.00482167)
(-0.0554747 -0.0151203 0.00476698)
(-0.0450903 -0.0150415 0.00480405)
(-0.037372 -0.0174647 0.00233254)
(-0.0273951 -0.017211 0.00253464)
(-0.0183292 -0.0182764 0.00277175)
(-0.00777804 -0.0180454 0.00327539)
(0.00281735 -0.0177961 0.00326426)
(0.0128687 -0.0178652 0.00278337)
(0.0218837 -0.0192767 0.00140856)
(0.0321903 -0.0174547 0.00242463)
(0.0450144 -0.0150396 0.00480293)
(0.0554487 -0.0151194 0.00476795)
(0.065803 -0.0151715 0.00482266)
(0.0734826 -0.0177422 0.00240008)
(0.0814032 -0.0185256 0.00126378)
(-0.0786813 -0.00764865 0.00243769)
(-0.0657997 -0.00506557 0.00480653)
(-0.0554458 -0.00504027 0.00476709)
(-0.0450789 -0.00502013 0.00482397)
(-0.0373656 -0.0075086 0.00238946)
(-0.0293253 -0.00913781 0.00116925)
(-0.0189429 -0.00875691 0.00157352)
(-0.00730145 -0.00704895 0.00318528)
(0.000989704 -0.00833151 0.00129223)
(0.0114718 -0.00896611 0.00248897)
(0.0236315 -0.00800927 0.00260272)
(0.031928 -0.007092 0.00256427)
(0.0450439 -0.0050238 0.0048242)
(0.0554329 -0.00504374 0.00476656)
(0.0657972 -0.00506662 0.00480628)
(0.0735324 -0.00762373 0.00236927)
(0.0823763 -0.00891284 0.00122379)
(-0.0783192 0.00260819 0.00241501)
(-0.0657962 0.00506886 0.00480707)
(-0.0554294 0.00504963 0.00476869)
(-0.0450325 0.00503662 0.00482821)
(-0.0373867 0.00251212 0.00240006)
(-0.0276037 0.0024901 0.00260242)
(-0.0178072 0.00267695 0.00292562)
(-0.00827776 0.00107705 0.00102223)
(0.0110757 0.00119448 0.00168243)
(0.0229021 0.00250884 0.00280226)
(0.0312182 0.00108877 0.00122536)
(0.0450763 0.00502188 0.00481908)
(0.0554463 0.00504249 0.00476428)
(0.0658006 0.00506559 0.00480529)
(0.0734501 0.00255409 0.00235674)
(0.0816483 0.00128585 0.00118339)
(-0.0785488 0.0126245 0.0024468)
(-0.0658025 0.0151737 0.00482297)
(-0.0554456 0.0151247 0.00476986)
(-0.045003 0.0150518 0.00480825)
(-0.0371167 0.0124728 0.00239847)
(-0.0285569 0.0113754 0.00134336)
(-0.0187399 0.0118451 0.00133517)
(-0.00919856 0.0110589 0.00197531)
(0.00135827 0.0109299 0.00213222)
(0.0128011 0.012691 0.00336721)
(0.022336 0.0117022 0.0017674)
(0.0323327 0.0123519 0.00266042)
(0.0450894 0.0150365 0.00479425)
(0.0554752 0.0151196 0.00476261)
(0.06581 0.0151715 0.00482009)
(0.0735113 0.0126578 0.00238084)
(0.0821434 0.0113875 0.00122774)
(-0.0798627 0.0214973 0.00123118)
(-0.0657396 0.0252793 0.00484987)
(-0.0555056 0.0252291 0.0047762)
(-0.0451575 0.0251118 0.00477947)
(-0.0348429 0.0249536 0.0048653)
(-0.0270868 0.0221992 0.00271124)
(-0.0173818 0.0226664 0.00273186)
(-0.00827662 0.023793 0.00286974)
(0.00286548 0.0226963 0.00302499)
(0.0131975 0.0237531 0.0029051)
(0.0223003 0.0222662 0.00284386)
(0.0348802 0.0249139 0.00482591)
(0.0451998 0.0251005 0.00476362)
(0.0555256 0.0252259 0.00476811)
(0.0657457 0.0252789 0.00484617)
(0.0734053 0.0227526 0.0024167)
(-0.0682808 0.0328905 0.00239564)
(-0.0555829 0.0353609 0.00480361)
(-0.0453098 0.0352481 0.00476473)
(-0.0350523 0.0350751 0.00479259)
(-0.0249263 0.034887 0.00484329)
(-0.0174411 0.0322728 0.00239658)
(-0.0071043 0.0320632 0.00266072)
(0.00237793 0.0324399 0.00255341)
(0.0123722 0.0323815 0.00274037)
(0.024909 0.0348837 0.0048354)
(0.0350539 0.0350593 0.00478079)
(0.0453234 0.0352425 0.00475686)
(0.0555927 0.0353601 0.0047983)
(0.0632556 0.0328998 0.0023255)
(0.0732695 0.0328831 0.00246017)
(-0.0681861 0.0429618 0.00246704)
(-0.0555784 0.0454589 0.0048632)
(-0.0454163 0.0454242 0.00478917)
(-0.0352389 0.045327 0.00476272)
(-0.0251033 0.045195 0.00477254)
(-0.0150456 0.0450768 0.00480244)
(-0.00502951 0.0450945 0.00482972)
(0.00502438 0.0451057 0.00484099)
(0.0150374 0.045106 0.00481814)
(0.0250976 0.0452082 0.00477628)
(0.0352391 0.0453259 0.00476073)
(0.0454229 0.0454229 0.00478633)
(0.0555863 0.0454584 0.00486033)
(0.0632651 0.0430106 0.00240208)
(0.0717828 0.0415216 0.00123684)
(-0.0580719 0.0530486 0.00244881)
(-0.0454548 0.0555845 0.0048624)
(-0.0353585 0.055593 0.00480127)
(-0.0252266 0.0555227 0.00477292)
(-0.0151222 0.0554701 0.00476834)
(-0.00504622 0.055452 0.004771)
(0.0050433 0.0554589 0.00477431)
(0.0151202 0.055482 0.00477343)
(0.0252246 0.0555277 0.00477564)
(0.035359 0.055591 0.00480212)
(0.045461 0.0555837 0.00486147)
(0.0530759 0.0530719 0.00239359)
(0.0617878 0.0517006 0.00121016)
(-0.0479589 0.0631776 0.00244763)
(-0.0379559 0.0632669 0.00236224)
(-0.0252795 0.0657451 0.00484819)
(-0.0151727 0.0658089 0.0048229)
(-0.0050666 0.0658025 0.00480825)
(0.00506729 0.0658038 0.00480859)
(0.0151729 0.0658113 0.00482334)
(0.0252789 0.065745 0.00484922)
(0.0328987 0.0632516 0.00233025)
(0.0430116 0.0632611 0.00240459)
(0.0517067 0.0617868 0.00120952)
(-0.0391766 0.0720832 0.00123115)
(-0.0277763 0.0732235 0.00243599)
(-0.0177432 0.0734822 0.00240001)
(-0.00762294 0.073533 0.00237068)
(0.00255667 0.0734495 0.00235786)
(0.0126604 0.0735114 0.00238126)
(0.0227527 0.0734041 0.00241604)
(0.0328848 0.0732713 0.00246135)
(0.041524 0.0717819 0.00124111)
(-0.0185273 0.0814012 0.00126463)
(-0.00891165 0.0823795 0.00122732)
(0.00128864 0.0816456 0.00118418)
(0.011393 0.0821475 0.00122889)
(-0.0284845 -0.0784644 0.0112508)
(-0.0177781 -0.0784543 0.0124949)
(-0.00764527 -0.0786646 0.0124895)
(0.00261619 -0.0782531 0.0124868)
(0.0126202 -0.0785342 0.0124911)
(0.0214961 -0.0798611 0.0112508)
(-0.0379125 -0.0682462 0.012486)
(-0.0252668 -0.0657196 0.0149528)
(-0.0151691 -0.065795 0.0149378)
(-0.00506755 -0.0657851 0.0149305)
(0.00506979 -0.0657858 0.0149304)
(0.0151709 -0.0657967 0.0149372)
(0.0252682 -0.0657204 0.0149521)
(0.0328691 -0.0682388 0.0124753)
(0.0429532 -0.0681674 0.0124945)
(-0.0589048 -0.058908 0.0112511)
(-0.0454288 -0.0555508 0.0149594)
(-0.0353379 -0.0555623 0.0149283)
(-0.0252175 -0.0555071 0.0149096)
(-0.015124 -0.0554657 0.014903)
(-0.00504798 -0.0554476 0.0149033)
(0.00505241 -0.0554529 0.0149039)
(0.0151314 -0.0554736 0.0149031)
(0.0252233 -0.0555097 0.0149089)
(0.0353421 -0.0555615 0.0149275)
(0.045437 -0.0555497 0.0149588)
(0.053032 -0.0580424 0.0124914)
(-0.055547 -0.0454314 0.0149592)
(-0.0453909 -0.0453949 0.0149186)
(-0.0352228 -0.0453063 0.0149006)
(-0.0251105 -0.0452012 0.0149054)
(-0.015068 -0.0450978 0.0149191)
(-0.00504202 -0.0451052 0.0149332)
(0.00504923 -0.0451291 0.0149371)
(0.0150864 -0.0451313 0.0149226)
(0.0251245 -0.045211 0.0149056)
(0.0352282 -0.0453075 0.0149006)
(0.0453949 -0.0453946 0.0149188)
(0.0555534 -0.0454295 0.0149591)
(0.0631454 -0.047929 0.0124928)
(-0.0682424 -0.0379133 0.0124862)
(-0.0555584 -0.0353392 0.0149272)
(-0.045299 -0.0352268 0.0148995)
(-0.0350419 -0.0350595 0.014911)
(-0.0249408 -0.0349202 0.0149449)
(-0.0175303 -0.0373962 0.0124479)
(-0.00756704 -0.0373267 0.0124734)
(0.00253757 -0.0375342 0.0124764)
(0.0125556 -0.0374136 0.0124663)
(0.024962 -0.0349191 0.0149452)
(0.0350442 -0.0350589 0.0149117)
(0.0452951 -0.0352279 0.014901)
(0.0555573 -0.0353388 0.0149282)
(0.0632182 -0.0379257 0.0124644)
(0.0720639 -0.0391688 0.0112492)
(-0.0784604 -0.0284918 0.0112505)
(-0.0657179 -0.0252692 0.0149519)
(-0.0555043 -0.0252154 0.0149074)
(-0.0451957 -0.0251069 0.0149027)
(-0.0348849 -0.0249579 0.0149417)
(-0.0271716 -0.0272557 0.0124657)
(-0.0173736 -0.0274408 0.0125466)
(-0.00730575 -0.0277669 0.0126088)
(0.00248804 -0.0276865 0.0125649)
(0.0131799 -0.0282841 0.0125478)
(0.021834 -0.0268524 0.0125142)
(0.0348737 -0.0249623 0.0149403)
(0.0451782 -0.0251123 0.0149043)
(0.0554944 -0.0252159 0.0149091)
(0.0657158 -0.0252655 0.0149527)
(0.073185 -0.0277611 0.0124902)
(-0.0784548 -0.0177832 0.0124946)
(-0.0657943 -0.0151691 0.0149365)
(-0.0554654 -0.0151156 0.0148996)
(-0.0451036 -0.0150448 0.0149142)
(-0.0374044 -0.0175026 0.0124415)
(-0.0274253 -0.0173816 0.0125437)
(-0.0184262 -0.0183711 0.0125643)
(-0.00796275 -0.0184993 0.0127282)
(0.00271559 -0.0182009 0.0127111)
(0.0131641 -0.0184159 0.0125989)
(0.0226438 -0.0174812 0.0126334)
(0.0324071 -0.0175573 0.0124769)
(0.0450852 -0.0150632 0.014918)
(0.0554525 -0.0151202 0.0149016)
(0.0657905 -0.0151672 0.0149372)
(0.0734569 -0.0177342 0.0124775)
(0.0813844 -0.0185229 0.0112592)
(-0.0786653 -0.00764783 0.0124893)
(-0.0657831 -0.00506588 0.0149292)
(-0.0554432 -0.00503894 0.0148993)
(-0.0451021 -0.00501852 0.014926)
(-0.0373354 -0.00752051 0.0124605)
(-0.0277474 -0.00737737 0.0126667)
(-0.0184796 -0.00789716 0.0126847)
(-0.00777341 -0.00776892 0.0126484)
(0.00131151 -0.00906427 0.0112858)
(0.01306 -0.00779934 0.0126829)
(0.0240044 -0.00819918 0.0126605)
(0.0321198 -0.00716318 0.0126334)
(0.0450968 -0.00503729 0.0149294)
(0.0554372 -0.00504622 0.0149003)
(0.0657816 -0.00506749 0.0149293)
(0.073501 -0.00762315 0.0124666)
(0.0823734 -0.00891802 0.0112491)