/*--------------------------------*- C++ -*----------------------------------*\
  =========                 |
  \\      /  F ield         | OpenFOAM: The Open Source CFD Toolbox
   \\    /   O peration     | Website:  https://openfoam.org
    \\  /    A nd           | Version:  9
     \\/     M anipulation  |
\*---------------------------------------------------------------------------*/
FoamFile
{
    format      ascii;
    class       volScalarField;
    location    "0";
    object      Cx;
}
// * * * * * * * * * * * * * * * * * * * * * * * * * * * * * * * * * * * * * //

dimensions      [0 1 0 0 0 0 0];

internalField   nonuniform List<scalar> 
66832
(
-0.00854505
0.00125132
-0.0183437
-0.00875031
0.00125209
0.0112315
-0.0184197
-0.00876332
0.00125327
0.0112574
-0.00873239
0.00125103
0.0112018
-0.00875864
0.0012547
0.0110437
-0.0288127
-0.0176025
-0.00753229
0.00251009
0.0126251
0.0214031
0.0312645
-0.0389416
-0.027684
-0.0176422
-0.00756095
0.0025195
0.012608
0.0226596
0.0327064
0.0413323
-0.0488634
-0.0377467
-0.02774
-0.0177425
-0.00761984
0.00254247
0.0126857
0.0227565
0.0327453
0.0427865
0.0511189
-0.047818
-0.0377917
-0.0278417
-0.0178373
-0.00763623
0.00254392
0.0127366
0.0228667
0.0327844
0.0427576
0.051455
-0.058563
-0.0477814
-0.0377843
-0.0278741
-0.0177795
-0.00758116
0.00252254
0.0126649
0.0228447
0.032849
0.0427814
0.0515537
-0.0586452
-0.0478085
-0.0377968
-0.0278464
-0.0177447
-0.00756005
0.00251915
0.0126459
0.0228378
0.032869
0.0428047
0.0516147
-0.0585663
-0.0478038
-0.0377736
-0.0278535
-0.0177946
-0.0076034
0.0025344
0.0127301
0.0228839
0.0328351
0.0427736
0.0515304
-0.049005
-0.037767
-0.027784
-0.0177924
-0.00763795
0.00254269
0.012735
0.0228501
0.0327628
0.0427427
0.0514245
-0.0487897
-0.0378095
-0.0277127
-0.0176665
-0.00759373
0.00252329
0.012636
0.0226888
0.0327104
0.0415966
0.0509732
-0.0388268
-0.0277253
-0.0176137
-0.00754661
0.00251118
0.0125938
0.0226266
0.0315209
0.0411675
-0.0287569
-0.0188327
-0.00878483
0.00125596
0.0113
0.0213245
0.0311196
-0.0278483
-0.0176931
-0.00758646
0.00253031
0.0126356
0.0227942
0.0315761
-0.049115
-0.0379079
-0.0252291
-0.0151272
-0.00503647
0.00503794
0.0151279
0.0252324
0.0328264
0.0429902
0.0512804
-0.0591178
-0.047957
-0.0352917
-0.0251764
-0.0151027
-0.00503639
0.00503784
0.0151007
0.0251759
0.0352931
0.0428689
0.0530758
-0.0581182
-0.0453705
-0.0352521
-0.0251714
-0.017638
-0.00758492
0.00253838
0.0126172
0.0251707
0.0352544
0.0453657
0.0529857
0.0632768
-0.0682859
-0.055509
-0.0453053
-0.0352236
-0.0278712
-0.0191282
-0.00913603
0.00131342
0.0116761
0.0229497
0.0352165
0.0452877
0.0554971
0.063157
0.0714783
-0.0682287
-0.0554598
-0.0452801
-0.0377561
-0.0292445
-0.0199215
-0.00775633
0.0026599
0.0116651
0.0224937
0.0327863
0.0452375
0.055446
0.0630722
0.0720663
-0.0681751
-0.0554462
-0.0453043
-0.0378839
-0.0298724
-0.0178342
-0.00763788
0.00127733
0.0127254
0.0219432
0.0319668
0.0452812
0.0554387
0.063066
0.0732759
-0.0681384
-0.0554378
-0.0452793
-0.0379486
-0.0296319
-0.0177688
-0.00879799
0.00125205
0.0113129
0.021696
0.0321023
0.0453038
0.0554465
0.0630659
0.0733315
-0.0682018
-0.0554443
-0.0452322
-0.0377723
-0.0296767
-0.0180745
-0.00756544
0.00125917
0.0128684
0.0221516
0.0330573
0.0452795
0.05546
0.0630623
0.0732172
-0.0682804
-0.0554956
-0.0452821
-0.035206
-0.028003
-0.0197821
-0.00782279
0.00259913
0.0117985
0.0223733
0.0352208
0.0453041
0.0555088
0.0631079
0.0719794
-0.0693343
-0.0580547
-0.0453631
-0.0352453
-0.0251584
-0.017698
-0.00899353
0.00126108
0.0127125
0.0251583
0.0352487
0.04537
0.0529626
0.063268
0.0711885
-0.0581637
-0.0479129
-0.0352889
-0.0251692
-0.015098
-0.00504149
0.00503027
0.0150941
0.0251705
0.0352901
0.0428568
0.0530173
0.0619853
-0.058575
-0.0480255
-0.037846
-0.0252303
-0.0151263
-0.0050383
0.00503476
0.0151253
0.0252275
0.0327926
0.0429122
0.0518476
-0.0379981
-0.0278083
-0.0176704
-0.0075665
0.00252149
0.0126094
0.0227195
0.0329123
0.0417172
-0.0289525
-0.0189402
-0.00756995
0.0025211
0.012674
0.0214535
0.0311932
-0.0190054
-0.00760921
0.00255773
0.0126901
0.0214381
-0.0380406
-0.0253163
-0.0151833
-0.00506332
0.00506499
0.0151849
0.0253226
0.0329763
0.0418681
-0.0586645
-0.0455682
-0.0354025
-0.0252526
-0.0151303
-0.00504352
0.00504625
0.0151324
0.0252587
0.0354072
0.0455707
0.0532187
-0.0557182
-0.0454745
-0.0352833
-0.0251307
-0.0150648
-0.00502511
0.00503093
0.0150598
0.0251359
0.0352907
0.0454754
0.0557168
0.0634756
-0.0684862
-0.0556524
-0.0453708
-0.0351347
-0.0249914
-0.0174952
-0.0075126
0.00250949
0.0124741
0.0249961
0.0351512
0.0453647
0.0556419
0.0633785
0.0721383
-0.065837
-0.055563
-0.0452465
-0.0349544
-0.0275082
-0.0187138
-0.008983
0.00128125
0.0113487
0.022371
0.034998
0.0452119
0.0555429
0.0658273
0.0735311
-0.079766
-0.0658253
-0.0554971
-0.0451683
-0.0374753
-0.02852
-0.0182672
-0.00913483
0.00257191
0.0116806
0.0215917
0.032258
0.0450591
0.055466
0.0658182
0.0735514
-0.0787003
-0.0658099
-0.0554657
-0.045155
-0.0375279
-0.029357
-0.0193139
-0.00873075
0.000830616
0.0116889
0.0232667
0.0309755
0.0450922
0.055449
0.0658066
0.0735488
0.0819316
-0.0786927
-0.0658059
-0.0554458
-0.0450834
-0.03749
-0.0276228
-0.0175864
-0.00829001
0.0107877
0.0217197
0.031269
0.0451539
0.0554661
0.0658104
0.0735325
0.082186
-0.0785827
-0.0658171
-0.0554619
-0.0450466
-0.037293
-0.0289745
-0.0187077
-0.00915525
0.0126725
0.0219137
0.0326264
0.0451657
0.0554969
0.0658264
0.0735435
0.0817135
-0.0794761
-0.0658267
-0.0555396
-0.0452014
-0.0349747
-0.027554
-0.0192692
-0.00773637
0.00169366
0.0127909
0.0217143
0.0349379
0.0452439
0.055563
0.0658385
0.0735398
-0.0684479
-0.0556399
-0.0453577
-0.0351337
-0.0249518
-0.0173763
-0.00855112
0.00120213
0.0124819
0.0249656
0.0351274
0.0453699
0.055653
0.0633523
0.0723188
-0.0697666
-0.0557152
-0.0454709
-0.0352811
-0.0251193
-0.0150457
-0.00502944
0.00501822
0.0150505
0.0251211
0.0352801
0.0454753
0.0557203
0.0634447
0.0716125
-0.0583279
-0.0455676
-0.0354037
-0.0252532
-0.0151276
-0.00504494
0.00504119
0.0151266
0.02525
0.0354024
0.0455699
0.0532019
0.0623158
-0.0482509
-0.0380416
-0.0253218
-0.0151837
-0.00506419
0.0050634
0.0151825
0.0253169
0.032943
0.0431426
0.0520978
-0.0392069
-0.0278982
-0.0177622
-0.00761438
0.00254432
0.0126831
0.022828
0.0317192
0.0413835
-0.00884092
0.00126064
0.011334
-0.0284898
-0.0177813
-0.00764631
0.00260841
0.0126235
0.021497
-0.0379292
-0.0252784
-0.0151726
-0.00506619
0.00506854
0.0151747
0.0252807
0.0328904
0.0429638
-0.0589088
-0.0454557
-0.0353581
-0.0252265
-0.015123
-0.0050449
0.0050494
0.0151292
0.0252335
0.0353634
0.0454624
0.0530538
-0.0555805
-0.0454196
-0.03524
-0.0251036
-0.015047
-0.00503108
0.00503741
0.0150649
0.0251217
0.035249
0.0454232
0.0555844
0.06318
-0.0682727
-0.0555901
-0.0453213
-0.0350544
-0.024918
-0.0174602
-0.00752079
0.00251837
0.0125005
0.0249596
0.0350665
0.0453168
0.0555861
0.0632617
0.0720758
-0.0784971
-0.0657442
-0.055524
-0.0451989
-0.0348752
-0.0271863
-0.0171889
-0.00911561
0.00238958
0.011266
0.0218633
0.0348523
0.0451649
0.0555081
0.0657398
0.073223
-0.0784711
-0.0658092
-0.0554747
-0.0450903
-0.037372
-0.0273951
-0.0183292
-0.00777804
0.00281735
0.0128687
0.0218837
0.0321903
0.0450144
0.0554487
0.065803
0.0734826
0.0814032
-0.0786813
-0.0657997
-0.0554458
-0.0450789
-0.0373656
-0.0293253
-0.0189429
-0.00730145
0.000989704
0.0114718
0.0236315
0.031928
0.0450439
0.0554329
0.0657972
0.0735324
0.0823763
-0.0783192
-0.0657962
-0.0554294
-0.0450325
-0.0373867
-0.0276037
-0.0178072
-0.00827776
0.0110757
0.0229021
0.0312182
0.0450763
0.0554463
0.0658006
0.0734501
0.0816483
-0.0785488
-0.0658025
-0.0554456
-0.045003
-0.0371167
-0.0285569
-0.0187399
-0.00919856
0.00135827
0.0128011
0.022336
0.0323327
0.0450894
0.0554752
0.06581
0.0735113
0.0821434
-0.0798627
-0.0657396
-0.0555056
-0.0451575
-0.0348429
-0.0270868
-0.0173818
-0.00827662
0.00286548
0.0131975
0.0223003
0.0348802
0.0451998
0.0555256
0.0657457
0.0734053
-0.0682808
-0.0555829
-0.0453098
-0.0350523
-0.0249263
-0.0174411
-0.0071043
0.00237793
0.0123722
0.024909
0.0350539
0.0453234
0.0555927
0.0632556
0.0732695
-0.0681861
-0.0555784
-0.0454163
-0.0352389
-0.0251033
-0.0150456
-0.00502951
0.00502438
0.0150374
0.0250976
0.0352391
0.0454229
0.0555863
0.0632651
0.0717828
-0.0580719
-0.0454548
-0.0353585
-0.0252266
-0.0151222
-0.00504622
0.0050433
0.0151202
0.0252246
0.035359
0.045461
0.0530759
0.0617878
-0.0479589
-0.0379559
-0.0252795
-0.0151727
-0.0050666
0.00506729
0.0151729
0.0252789
0.0328987
0.0430116
0.0517067
-0.0391766
-0.0277763
-0.0177432
-0.00762294
0.00255667
0.0126604
0.0227527
0.0328848
0.041524
-0.0185273
-0.00891165
0.00128864
0.011393
-0.0284845
-0.0177781
-0.00764527
0.00261619
0.0126202
0.0214961
-0.0379125
-0.0252668
-0.0151691
-0.00506755
0.00506979
0.0151709
0.0252682
0.0328691
0.0429532
-0.0589048
-0.0454288
-0.0353379
-0.0252175
-0.015124
-0.00504798
0.00505241
0.0151314
0.0252233
0.0353421
0.045437
0.053032
-0.055547
-0.0453909
-0.0352228
-0.0251105
-0.015068
-0.00504202
0.00504923
0.0150864
0.0251245
0.0352282
0.0453949
0.0555534
0.0631454
-0.0682424
-0.0555584
-0.045299
-0.0350419
-0.0249408
-0.0175303
-0.00756704
0.00253757
0.0125556
0.024962
0.0350442
0.0452951
0.0555573
0.0632182
0.0720639
-0.0784604
-0.0657179
-0.0555043
-0.0451957
-0.0348849
-0.0271716
-0.0173736
-0.00730575
0.00248804
0.0131799
0.021834
0.0348737
0.0451782
0.0554944
0.0657158
0.073185
-0.0784548
-0.0657943
-0.0554654
-0.0451036
-0.0374044
-0.0274253
-0.0184262
-0.00796275
0.00271559
0.0131641
0.0226438
0.0324071
0.0450852
0.0554525
0.0657905
0.0734569
0.0813844
-0.0786653
-0.0657831
-0.0554432
-0.0451021
-0.0373354
-0.0277474
-0.0184796
-0.00777341
0.00131151
0.01306
0.0240044
0.0321198
0.0450968
0.0554372
0.0657816
0.073501
0.0823734
-0.078253
-0.0657817
-0.0554378
-0.0450933
-0.0374776
-0.0276531
-0.0182069
-0.00906685
0.0129458
0.0232692
0.0324497
0.0451003
0.0554432
0.0657839
0.0733936
0.0814801
-0.0785356
-0.065792
-0.055456
-0.0450879
-0.0373166
-0.0282885
-0.018468
-0.00786079
0.00258914
0.0131138
0.0238115
0.0320929
0.0451061
0.0554676
0.0657957
0.0734859
0.0821383
-0.0798638
-0.065717
-0.0554974
-0.0451826
-0.034873
-0.0268071
-0.0173553
-0.00842582
0.00265516
0.0132676
0.0223158
0.0349048
0.0452018
0.0555081
0.0657202
0.0733734
-0.0682389
-0.0555558
-0.0452944
-0.0350385
-0.0249333
-0.0175201
-0.00718917
0.00235767
0.0122206
0.0249444
0.0350477
0.0453046
0.055563
0.0632075
0.0732485
-0.0681663
-0.0555462
-0.0453898
-0.0352229
-0.0251118
-0.0150702
-0.00504268
0.00503628
0.0150591
0.0251065
0.035224
0.0453963
0.0555546
0.0632241
0.0717758
-0.0580396
-0.0454283
-0.0353385
-0.0252186
-0.0151258
-0.00505004
0.0050454
0.01512
0.0252154
0.0353392
0.0454357
0.0530382
0.0617364
-0.0479271
-0.0379253
-0.0252674
-0.0151694
-0.00506789
0.00506863
0.0151692
0.0252672
0.0328732
0.0429818
0.0516701
-0.0391719
-0.0277614
-0.0177354
-0.00762221
0.00256134
0.0126561
0.0227398
0.0328747
0.0415188
-0.0185244
-0.00891664
0.00129151
0.0113963
-0.0284844
-0.0177778
-0.00764497
0.00261612
0.0126198
0.0214961
-0.0379101
-0.0252654
-0.0151698
-0.00506877
0.00506912
0.0151697
0.0252655
0.0328654
0.0429521
-0.0589047
-0.0454245
-0.0353335
-0.0252181
-0.0151295
-0.00505225
0.00505133
0.0151305
0.0252188
0.0353352
0.0454322
0.0530298
-0.0555418
-0.0453836
-0.0352199
-0.0251199
-0.0150854
-0.00505046
0.00505356
0.0150936
0.0251223
0.0352185
0.0453848
0.0555474
0.0631431
-0.0682387
-0.0555506
-0.0452936
-0.0350459
-0.0249583
-0.0175605
-0.00758408
0.00254639
0.0126135
0.0249592
0.0350363
0.0452842
0.0555481
0.0632097
0.0720636
-0.0784602
-0.065714
-0.0555
-0.0452033
-0.0349068
-0.0272033
-0.017376
-0.00725109
0.00244823
0.0132237
0.0218457
0.0348857
0.0451799
0.0554878
0.0657116
0.0731824
-0.0784541
-0.0657922
-0.0554685
-0.0451362
-0.037483
-0.0274703
-0.0184362
-0.00792114
0.0026791
0.0131202
0.0226638
0.0325061
0.0451067
0.0554524
0.0657876
0.0734534
0.0813844
-0.0786637
-0.0657814
-0.0554512
-0.0451385
-0.0374532
-0.0277594
-0.0185339
-0.00782738
0.00130885
0.0131233
0.0240783
0.032105
0.0451228
0.0554412
0.0657787
0.0734954
0.0823735
-0.0782504
-0.0657814
-0.0554503
-0.0451349
-0.0375555
-0.0277227
-0.0182858
-0.00911295
0.0130228
0.023322
0.0324865
0.045139
0.0554513
0.0657819
0.0733863
0.0814806
-0.0785347
-0.0657927
-0.0554693
-0.0451385
-0.0374338
-0.0282764
-0.018532
-0.00790854
0.00260435
0.0131625
0.0238935
0.0320844
0.0451447
0.0554746
0.0657945
0.0734818
0.0821383
-0.0798639
-0.0657156
-0.0555019
-0.0452091
-0.034922
-0.0268851
-0.0174706
-0.00838737
0.00263514
0.0131874
0.0222434
0.034914
0.0452148
0.0555073
0.0657173
0.0733708
-0.0682331
-0.0555518
-0.0452973
-0.0350519
-0.0249569
-0.0175535
-0.00725652
0.0024385
0.01219
0.0249462
0.035049
0.0453017
0.0555569
0.0631974
0.0732468
-0.0681646
-0.055542
-0.0453853
-0.0352231
-0.0251217
-0.0150871
-0.00505496
0.00503668
0.0150664
0.025109
0.0352197
0.0453898
0.0555499
0.0632185
0.0717755
-0.0580368
-0.0454246
-0.0353348
-0.0252193
-0.0151305
-0.00505425
0.00504432
0.0151197
0.0252125
0.0353341
0.0454317
0.0530327
0.061735
-0.0479251
-0.0379196
-0.025266
-0.0151699
-0.00506888
0.00506822
0.0151683
0.025265
0.0328674
0.0429781
0.051669
-0.0391717
-0.0277599
-0.0177343
-0.0076217
0.00256167
0.0126558
0.022739
0.0328738
0.0415187
-0.0185244
-0.00891637
0.00129166
0.0113964
-0.0284844
-0.0177778
-0.007645
0.00261604
0.0126197
0.0214961
-0.0379096
-0.0252653
-0.0151704
-0.00507009
0.00506709
0.0151673
0.0252635
0.0328644
0.0429518
-0.0589049
-0.0454231
-0.0353315
-0.0252182
-0.0151324
-0.00505705
0.00504429
0.0151223
0.0252114
0.0353299
0.0454297
0.0530292
-0.0555397
-0.045379
-0.0352156
-0.0251212
-0.0150932
-0.00506207
0.00503554
0.0150732
0.0251049
0.0352053
0.0453765
0.0555442
0.0631426
-0.0682379
-0.0555457
-0.0452837
-0.0350365
-0.0249558
-0.0175753
-0.00760057
0.0025245
0.0125845
0.0249295
0.0350081
0.0452647
0.0555399
0.0632071
0.0720635
-0.0784602
-0.0657117
-0.0554912
-0.0451827
-0.0348888
-0.0272084
-0.0173869
-0.00728644
0.00239441
0.0131712
0.0218133
0.0348209
0.0451338
0.0554704
0.0657074
0.0731818
-0.0784539
-0.0657896
-0.0554582
-0.0451057
-0.0374668
-0.0274778
-0.0183975
-0.00792832
0.00265541
0.0130748
0.0226454
0.0324124
0.0450357
0.0554295
0.0657821
0.0734523
0.0813844
-0.0786634
-0.0657792
-0.0554432
-0.0451164
-0.0374333
-0.0277537
-0.0184547
-0.00780013
0.00131126
0.0130743
0.0239479
0.0321379
0.045083
0.0554248
0.0657741
0.0734938
0.0823735
-0.07825
-0.06578
-0.0554456
-0.045123
-0.0375551
-0.0277242
-0.0182746
-0.00911176
0.0129399
0.0232677
0.0324881
0.0451317
0.0554448
0.0657793
0.0733847
0.0814805
-0.0785344
-0.065792
-0.0554658
-0.0451288
-0.0374425
-0.0283162
-0.0185454
-0.00795845
0.00248329
0.013043
0.0238355
0.0321031
0.0451465
0.0554721
0.0657934
0.0734809
0.0821383
-0.0798639
-0.0657147
-0.0554993
-0.0452049
-0.0349239
-0.0268326
-0.0174408
-0.00845933
0.00257612
0.0132388
0.0223092
0.0349167
0.0452133
0.0555052
0.0657166
0.0733704
-0.0682319
-0.0555497
-0.0452946
-0.0350533
-0.0249639
-0.0175765
-0.0072384
0.00235153
0.0122328
0.0249389
0.0350436
0.0452988
0.0555551
0.0631953
0.0732465
-0.0681643
-0.0555407
-0.045383
-0.0352219
-0.0251228
-0.0150871
-0.00505651
0.00502455
0.0150456
0.0250965
0.0352149
0.0453875
0.0555489
0.0632176
0.0717754
-0.0580364
-0.0454236
-0.0353335
-0.0252192
-0.0151314
-0.00505663
0.00503911
0.0151131
0.0252077
0.0353316
0.0454308
0.0530317
0.0617349
-0.0479248
-0.0379184
-0.0252657
-0.01517
-0.00506959
0.00506688
0.0151667
0.0252637
0.0328659
0.0429775
0.0516689
-0.0391717
-0.0277597
-0.0177341
-0.00762168
0.00256159
0.0126556
0.0227388
0.0328736
0.0415187
-0.0185244
-0.00891635
0.00129166
0.0113964
-0.0284844
-0.0177778
-0.007645
0.00261594
0.0126196
0.021496
-0.0379094
-0.0252644
-0.0151696
-0.0050705
0.00506499
0.0151644
0.0252615
0.0328638
0.0429516
-0.0589047
-0.0454218
-0.0353287
-0.0252144
-0.0151292
-0.00505834
0.00503657
0.0151114
0.0252033
0.035326
0.0454282
0.053029
-0.0555378
-0.0453738
-0.0352071
-0.0251124
-0.0150866
-0.00506493
0.00501623
0.0150452
0.0250857
0.0351966
0.0453712
0.0555424
0.0631424
-0.0682376
-0.0555407
-0.0452697
-0.0350149
-0.0249467
-0.0175758
-0.00761682
0.00250188
0.0125244
0.0249154
0.034994
0.0452507
0.0555342
0.0632057
0.0720635
-0.0784602
-0.0657094
-0.0554796
-0.0451443
-0.0348185
-0.0271846
-0.0173955
-0.00730065
0.00235981
0.0131315
0.0218376
0.0347478
0.0450847
0.0554544
0.0657039
0.0731814
-0.0784538
-0.0657864
-0.0554436
-0.0450435
-0.0373228
-0.027307
-0.0180049
-0.00776012
0.00278685
0.013173
0.0224901
0.0320756
0.0449414
0.0554047
0.0657767
0.0734515
0.0813844
-0.0786632
-0.0657761
-0.0554299
-0.0450724
-0.0373274
-0.028419
-0.0178863
-0.00759478
0.0013397
0.0128871
0.0218517
0.0319432
0.0450199
0.055402
0.0657685
0.0734927
0.0823735
-0.0782498
-0.0657771
-0.0554331
-0.0450796
-0.037487
-0.0276823
-0.0181536
-0.00909055
0.0127106
0.0230861
0.0324714
0.0450924
0.0554266
0.0657745
0.0733838
0.0814805
-0.0785343
-0.065789
-0.0554526
-0.0450804
-0.0373386
-0.028286
-0.018548
-0.00803615
0.00218957
0.012762
0.0237638
0.0320719
0.0451114
0.0554577
0.0657897
0.0734802
0.0821383
-0.0798638
-0.0657124
-0.0554893
-0.0451775
-0.0349007
-0.0268881
-0.0174125
-0.00838143
0.00104816
0.013032
0.0223734
0.0348948
0.0451962
0.0554978
0.0657147
0.0733701
-0.0682314
-0.055545
-0.0452829
-0.0350385
-0.0249573
-0.0175602
-0.00733763
0.00240956
0.0124026
0.0249149
0.0350441
0.0452967
0.0555536
0.0631943
0.0732464
-0.0681641
-0.0555389
-0.0453782
-0.0352148
-0.0251162
-0.0150821
-0.00505888
0.00500484
0.0150337
0.0250856
0.0352152
0.0453877
0.0555487
0.0632173
0.0717754
-0.0580362
-0.0454223
-0.0353309
-0.0252162
-0.0151291
-0.00505743
0.00503393
0.0151086
0.0252048
0.0353314
0.0454311
0.0530315
0.0617349
-0.0479247
-0.0379178
-0.0252649
-0.0151693
-0.00506965
0.00506583
0.0151656
0.0252631
0.0328654
0.0429774
0.0516689
-0.0391716
-0.0277596
-0.017734
-0.00762162
0.00256146
0.0126553
0.0227386
0.0328735
0.0415187
-0.0185244
-0.00891635
0.00129165
0.0113964
-0.0284844
-0.0177778
-0.00764495
0.00261591
0.0126196
0.021496
-0.0379092
-0.0252625
-0.0151671
-0.00506936
0.00506403
0.0151626
0.0252602
0.0328636
0.0429516
-0.0589047
-0.0454208
-0.0353252
-0.0252067
-0.015119
-0.00505395
0.0050321
0.0151045
0.0251981
0.0353246
0.045428
0.053029
-0.0555372
-0.0453712
-0.0351998
-0.0250943
-0.0150586
-0.0050532
0.00500143
0.015028
0.0250741
0.0351966
0.0453723
0.0555429
0.0631424
-0.0682374
-0.0555399
-0.045267
-0.0350084
-0.0249276
-0.0175357
-0.00758417
0.00248001
0.0124786
0.0249334
0.0350125
0.045257
0.0555362
0.0632055
0.0720635
-0.0784602
-0.0657092
-0.0554788
-0.0451454
-0.0348284
-0.0271555
-0.0173641
-0.00725175
0.002452
0.0113263
0.0224441
0.034775
0.0450991
0.0554592
0.065705
0.0731814
-0.0784538
-0.0657861
-0.0554422
-0.0450575
-0.0373051
-0.0282248
-0.0179883
-0.0075924
0.0032016
0.0125794
0.0212477
0.0320276
0.0449613
0.0554094
0.0657777
0.0734513
0.0813844
-0.0786632
-0.0657757
-0.0554282
-0.0450745
-0.0373601
-0.0292047
-0.0193638
-0.00874976
0.00157296
0.0114008
0.0227743
0.0319114
0.0450114
0.0553987
0.0657677
0.0734923
0.0823735
-0.0782497
-0.0657766
-0.055434
-0.0450999
-0.0374614
-0.0285879
-0.0179549
-0.00883724
0.0124085
0.0229403
0.0324666
0.045042
0.0554107
0.065771
0.0733831
0.0814804
-0.0785342
-0.0657876
-0.0554488
-0.0450774
-0.0373558
-0.0290755
-0.0184258
-0.00800785
0.000696664
0.0120225
0.0236635
0.0320185
0.0450458
0.0554387
0.0657856
0.0734795
0.0821383
-0.0798638
-0.0657105
-0.0554807
-0.0451498
-0.0348215
-0.0267841
-0.0173714
-0.00848776
0.00101929
0.0110209
0.0215992
0.0349882
0.0451825
0.0554898
0.0657127
0.0733698
-0.068231
-0.0555403
-0.0452696
-0.0350124
-0.0249301
-0.0175393
-0.00735022
0.00112244
0.0125214
0.0249936
0.0351069
0.045306
0.0555539
0.0631937
0.0732464
-0.068164
-0.0555371
-0.0453726
-0.0352044
-0.0251027
-0.0150712
-0.00505498
0.00500334
0.0150428
0.0251014
0.0352314
0.0453931
0.0555496
0.0632173
0.0717754
-0.058036
-0.0454206
-0.0353271
-0.0252104
-0.0151234
-0.00505425
0.00503532
0.0151122
0.0252092
0.0353355
0.0454326
0.0530318
0.0617348
-0.0479246
-0.0379172
-0.0252634
-0.0151676
-0.00506844
0.00506657
0.0151665
0.025264
0.032866
0.0429776
0.0516689
-0.0391716
-0.0277595
-0.0177338
-0.00762143
0.00256155
0.0126554
0.0227387
0.0328736
0.0415187
-0.0185244
-0.00891635
0.00129166
0.0113964
-0.0284844
-0.0177777
-0.00764488
0.00261595
0.0126195
0.021496
-0.0379091
-0.0252607
-0.0151643
-0.00506713
0.00506484
0.0151625
0.0252601
0.0328635
0.0429516
-0.0589047
-0.0454205
-0.0353228
-0.0251989
-0.0151084
-0.00504564
0.0050339
0.0151033
0.0251968
0.0353252
0.045429
0.0530291
-0.0555383
-0.0453727
-0.0351969
-0.0250732
-0.0150257
-0.00503061
0.00500032
0.0150206
0.0250666
0.0351994
0.0453773
0.0555452
0.0631426
-0.0682376
-0.0555439
-0.0452766
-0.0350184
-0.0249023
-0.0174707
-0.00752095
0.00247734
0.012444
0.0248916
0.0350217
0.0452745
0.055544
0.0632068
0.0720635
-0.0784602
-0.0657117
-0.0554894
-0.0451782
-0.034894
-0.0271983
-0.0174134
-0.00833304
0.00117736
0.0112485
0.0222474
0.034864
0.0451595
0.0554802
0.0657099
0.0731817
-0.0784539
-0.0657894
-0.0554547
-0.0450949
-0.0374214
-0.0274857
-0.0182814
-0.00749861
0.00202803
0.0122773
0.0226574
0.0323689
0.0450691
0.0554391
0.0657847
0.073452
0.0813844
-0.0786633
-0.0657784
-0.0554378
-0.0450954
-0.0373436
-0.0285709
-0.0179538
-0.00828802
0.00108688
0.0117055
0.0237054
0.0321391
0.0450731
0.0554189
0.065773
0.0734931
0.0823735
-0.0782498
-0.0657781
-0.0554398
-0.045123
-0.0375321
-0.0288185
-0.0189547
0.0117386
0.0227028
0.03247
0.0450542
0.0554149
0.0657724
0.0733834
0.0814805
-0.0785343
-0.0657878
-0.0554496
-0.0450796
-0.0374488
-0.029194
-0.0180694
-0.00709414
0.00280419
0.0112188
0.0220796
0.0321729
0.0450283
0.055434
0.0657847
0.0734794
0.0821383
-0.0798638
-0.06571
-0.0554786
-0.045143
-0.0348175
-0.0266876
-0.0173979
-0.00812492
0.0028802
0.0124416
0.0216104
0.0350055
0.0451708
0.0554856
0.0657118
0.0733697
-0.0682307
-0.0555392
-0.045267
-0.0350106
-0.0249033
-0.0175172
-0.00716593
0.00234482
0.0123507
0.0250249
0.0351298
0.0453084
0.0555536
0.0631935
0.0732464
-0.068164
-0.0555366
-0.0453708
-0.0351989
-0.0250829
-0.0150451
-0.00503614
0.00502758
0.0150516
0.0251161
0.0352404
0.0453957
0.0555502
0.0632174
0.0717754
-0.0580359
-0.0454198
-0.0353242
-0.0252026
-0.0151129
-0.00504515
0.00504448
0.0151188
0.0252151
0.0353387
0.0454335
0.0530323
0.0617349
-0.0479245
-0.0379167
-0.0252616
-0.0151648
-0.00506581
0.00506911
0.0151686
0.0252654
0.0328672
0.042978
0.0516689
-0.0391716
-0.0277594
-0.0177335
-0.00762102
0.00256196
0.0126557
0.0227389
0.0328737
0.0415187
-0.0185244
-0.00891636
0.00129167
0.0113964
-0.0284844
-0.0177777
-0.00764478
0.00261607
0.0126196
0.021496
-0.0379091
-0.0252601
-0.015163
-0.0050651
0.00506718
0.0151644
0.0252615
0.0328639
0.0429517
-0.0589049
-0.0454216
-0.0353235
-0.0251962
-0.0151036
-0.00503881
0.00504236
0.0151089
0.025202
0.0353291
0.0454313
0.0530294
-0.0555404
-0.0453771
-0.0351995
-0.0250644
-0.01502
-0.00501503
0.00502571
0.0150301
0.0250796
0.0352081
0.0453846
0.0555484
0.0631429
-0.068238
-0.0555495
-0.0452876
-0.0350255
-0.0248768
-0.0174143
-0.00750792
0.00251075
0.0124693
0.0249122
0.0350343
0.0452914
0.0555525
0.0632085
0.0720636
-0.0784602
-0.065715
-0.055501
-0.0452017
-0.0349044
-0.0271945
-0.0183351
-0.00917435
0.00104564
0.0114782
0.0218532
0.034913
0.0452006
0.0554992
0.0657153
0.0731821
-0.078454
-0.0657942
-0.0554703
-0.045132
-0.0374793
-0.0274785
-0.0183286
-0.00898022
0.00178976
0.0126633
0.0227284
0.0325259
0.0451292
0.0554652
0.0657925
0.0734532
0.0813844
-0.0786635
-0.0657828
-0.0554502
-0.0451236
-0.0374265
-0.0277477
-0.018382
-0.00870084
0.000665292
0.0122985
0.0237825
0.0320979
0.0451161
0.0554419
0.0657805
0.0734946
0.0823735
-0.07825
-0.0657805
-0.0554409
-0.0450868
-0.0374908
-0.0276854
-0.0176809
-0.00860788
0.0108592
0.0212556
0.0324722
0.0450792
0.0554313
0.065778
0.0733846
0.0814805
-0.0785344
-0.0657892
-0.0554483
-0.0450421
-0.0372648
-0.0289639
-0.0190277
0.00308618
0.0134061
0.0322719
0.0450415
0.0554435
0.065788
0.07348
0.0821383
-0.0798638
-0.0657115
-0.0554821
-0.045149
-0.0348788
-0.0274354
-0.0191426
-0.00753671
0.00285193
0.0132696
0.0215844
0.0348572
0.0451602
0.055487
0.0657129
0.0733699
-0.0682311
-0.0555423
-0.0452734
-0.0350255
-0.0248905
-0.0173685
-0.0070604
0.00238733
0.0122125
0.0249694
0.0350643
0.0452967
0.0555527
0.0631938
0.0732464
-0.0681641
-0.0555381
-0.045374
-0.0352011
-0.0250701
-0.0150185
-0.00501233
0.00505617
0.0150771
0.0251202
0.0352315
0.045393
0.0555501
0.0632175
0.0717754
-0.058036
-0.0454207
-0.0353247
-0.025199
-0.0151053
-0.00503653
0.00505493
0.0151269
0.0252186
0.0353388
0.0454336
0.0530324
0.0617349
-0.0479246
-0.0379168
-0.0252608
-0.0151631
-0.00506358
0.00507179
0.015171
0.0252667
0.0328678
0.0429781
0.0516689
-0.0391716
-0.0277594
-0.0177333
-0.00762063
0.00256248
0.0126562
0.0227392
0.0328737
0.0415187
-0.0185244
-0.00891633
0.00129168
0.0113964
-0.0284844
-0.0177777
-0.00764475
0.00261621
0.0126198
0.021496
-0.0379095
-0.0252619
-0.0151643
-0.00506456
0.0050698
0.0151681
0.0252647
0.0328648
0.042952
-0.0589047
-0.0454253
-0.0353303
-0.0252028
-0.015107
-0.00503719
0.00505056
0.0151197
0.0252132
0.0353376
0.0454356
0.0530299
-0.0555444
-0.0453875
-0.0352141
-0.0250792
-0.0150254
-0.005015
0.00504267
0.0150549
0.0251027
0.0352256
0.0453964
0.0555531
0.0631432
-0.0682386
-0.0555578
-0.0453033
-0.0350413
-0.0249108
-0.0174463
-0.00751558
0.00253248
0.0125312
0.0249357
0.035051
0.0453086
0.055562
0.0632107
0.0720636
-0.0784602
-0.0657195
-0.0555128
-0.0452108
-0.0349006
-0.0271873
-0.0172626
-0.00847096
0.00237989
0.0132045
0.0218446
0.0349012
0.0452103
0.0555129
0.0657207
0.0731826
-0.0784542
-0.0658007
-0.0554844
-0.0451332
-0.0374706
-0.0274594
-0.0184
-0.0079824
0.00241918
0.0129975
0.0226989
0.032509
0.0451272
0.0554816
0.0658003
0.0734545
0.0813844
-0.0786639
-0.0657903
-0.0554657
-0.0451326
-0.0374374
-0.0277396
-0.0184663
-0.00786862
0.00122895
0.0128646
0.0240519
0.0321106
0.0451253
0.0554612
0.0657897
0.0734964
0.0823735
-0.0782505
-0.0657878
-0.0554549
-0.0451048
-0.0375071
-0.0276731
-0.0180971
-0.00905494
0.0128534
0.0230992
0.032519
0.0450994
0.0554506
0.065787
0.0733865
0.0814806
-0.0785347
-0.0657957
-0.0554621
-0.0450717
-0.0373117
-0.0283039
-0.018161
-0.00755561
0.00273394
0.0131811
0.0237073
0.0320501
0.0450737
0.055461
0.0657954
0.0734815
0.0821383
-0.0798639
-0.0657164
-0.0554961
-0.0451706
-0.0348492
-0.0267835
-0.0172782
-0.0082529
0.00273576
0.0132033
0.0222518
0.0348678
0.0451778
0.0554994
0.0657174
0.0733706
-0.0682321
-0.0555515
-0.0452905
-0.0350345
-0.0249251
-0.0174567
-0.00705244
0.00247948
0.0122249
0.0249513
0.0350493
0.0453023
0.0555584
0.0631959
0.0732466
-0.0681643
-0.0555425
-0.0453846
-0.0352153
-0.0250876
-0.0150347
-0.00501378
0.00505382
0.0150733
0.0251185
0.0352328
0.0453976
0.0555525
0.0632182
0.0717754
-0.0580364
-0.0454245
-0.0353314
-0.0252064
-0.015111
-0.00503785
0.00505546
0.0151288
0.0252216
0.0353419
0.0454358
0.053033
0.0617349
-0.0479248
-0.0379178
-0.025263
-0.0151651
-0.00506411
0.00507243
0.0151724
0.0252682
0.0328688
0.0429785
0.051669
-0.0391716
-0.0277595
-0.0177334
-0.00762053
0.0025628
0.0126566
0.0227395
0.0328738
0.0415187
-0.0185244
-0.00891634
0.00129172
0.0113964
-0.0284844
-0.0177778
-0.00764481
0.00261631
0.01262
0.0214961
-0.0379103
-0.0252672
-0.0151692
-0.00506609
0.00507223
0.0151737
0.0252702
0.0328663
0.0429524
-0.0589047
-0.0454333
-0.0353463
-0.0252223
-0.0151222
-0.00504144
0.00505651
0.0151359
0.0252328
0.035354
0.0454437
0.0530306
-0.0555532
-0.0454121
-0.0352553
-0.0251169
-0.0150482
-0.00502216
0.00505031
0.0150775
0.0251384
0.035267
0.0454212
0.055562
0.0631438
-0.0682397
-0.0555766
-0.0453477
-0.0351097
-0.024947
-0.0174546
-0.00750632
0.00253948
0.012521
0.0249808
0.0351206
0.0453529
0.0555811
0.0632141
0.0720637
-0.0784602
-0.065729
-0.0555418
-0.0452501
-0.0349229
-0.0271935
-0.0171683
-0.00818289
0.00243085
0.0111552
0.0218713
0.03493
0.0452473
0.0555422
0.0657305
0.0731833
-0.0784547
-0.0658146
-0.0555214
-0.0451495
-0.0373979
-0.0273704
-0.0183931
-0.00793644
0.00260689
0.013031
0.0218472
0.0323207
0.0451416
0.0555196
0.065815
0.0734565
0.0813844
-0.0786647
-0.0658073
-0.0555096
-0.0451669
-0.0373698
-0.0284009
-0.0183739
-0.00779722
0.0012973
0.0130027
0.0239909
0.0320194
0.0451647
0.0555074
0.0658077
0.0734994
0.0823736
-0.0782514
-0.0658059
-0.0555041
-0.0451557
-0.0375031
-0.0277002
-0.0181498
-0.00909194
0.0129397
0.0232183
0.032469
0.0451446
0.0555008
0.0658058
0.0733898
0.0814807
-0.0785353
-0.0658118
-0.0555092
-0.0451217
-0.0372984
-0.0287241
-0.0183599
-0.00778203
0.00262378
0.0130839
0.0238239
0.0319705
0.0451154
0.055508
0.0658117
0.0734842
0.0821383
-0.0798639
-0.0657276
-0.0555326
-0.0452313
-0.0349092
-0.0267894
-0.019196
-0.00819977
0.00265126
0.0131039
0.0223068
0.0349282
0.0452349
0.0555346
0.0657283
0.073372
-0.0682344
-0.0555731
-0.0453416
-0.0351111
-0.0249732
-0.0174884
-0.00710197
0.00237608
0.0121208
0.0249779
0.0351193
0.0453486
0.0555781
0.0632015
0.0732471
-0.0681649
-0.0555521
-0.045411
-0.0352585
-0.0251296
-0.0150673
-0.00503706
0.00503346
0.0150633
0.0251361
0.035267
0.0454201
0.0555608
0.06322
0.0717755
-0.0580372
-0.0454328
-0.0353482
-0.0252273
-0.0151291
-0.00504745
0.00505183
0.0151337
0.0252335
0.0353545
0.0454428
0.0530353
0.0617351
-0.0479253
-0.0379201
-0.0252686
-0.0151707
-0.00506719
0.00507229
0.015175
0.0252719
0.0328716
0.0429798
0.0516692
-0.0391717
-0.0277599
-0.017734
-0.00762088
0.00256284
0.0126569
0.02274
0.0328741
0.0415187
-0.0185244
-0.00891634
0.00129173
0.0113964
-0.0284844
-0.017778
-0.00764494
0.00261648
0.0126202
0.0214961
-0.0379115
-0.0252758
-0.0151775
-0.00506956
0.00507507
0.0151815
0.0252784
0.0328684
0.0429531
-0.0589047
-0.0454453
-0.0353726
-0.0252572
-0.0151515
-0.00505219
0.00506437
0.015163
0.025266
0.0353797
0.0454559
0.0530319
-0.0555674
-0.0454527
-0.0353302
-0.0252131
-0.0151269
-0.00504733
0.00506695
0.0151473
0.0252299
0.0353412
0.0454621
0.055576
0.0631447
-0.0682415
-0.0556099
-0.0454354
-0.035294
-0.0251892
-0.0175708
-0.00755459
0.00254676