/*--------------------------------*- C++ -*----------------------------------*\
  =========                 |
  \\      /  F ield         | OpenFOAM: The Open Source CFD Toolbox
   \\    /   O peration     | Website:  https://openfoam.org
    \\  /    A nd           | Version:  9
     \\/     M anipulation  |
\*---------------------------------------------------------------------------*/
FoamFile
{
    format      ascii;
    class       volScalarField;
    location    "0";
    object      Cy;
}
// * * * * * * * * * * * * * * * * * * * * * * * * * * * * * * * * * * * * * //

dimensions      [0 1 0 0 0 0 0];

internalField   nonuniform List<scalar> 
66832
(
-0.018346
-0.0184205
-0.00854634
-0.00875056
-0.00876302
-0.00873245
0.00125199
0.00125185
0.00125346
0.00125146
0.0112314
0.0112583
0.0112033
-0.0585635
-0.0586456
-0.0585676
-0.0488627
-0.0478173
-0.047782
-0.0478105
-0.0478062
-0.0490055
-0.0487915
-0.0389423
-0.0377465
-0.0377916
-0.0377882
-0.0378049
-0.0377795
-0.0377698
-0.0378099
-0.0388276
-0.0288131
-0.0276832
-0.0277384
-0.0278422
-0.027889
-0.0278751
-0.027871
-0.0277934
-0.0277165
-0.0277259
-0.0287556
-0.017603
-0.0176407
-0.0177398
-0.0178347
-0.017787
-0.0177633
-0.017807
-0.0178068
-0.0176686
-0.0176146
-0.018833
-0.00875803
-0.00753233
-0.0075596
-0.00761803
-0.00763802
-0.00758196
-0.00756205
-0.0076044
-0.00763153
-0.00758901
-0.00754639
-0.0087855
0.00125507
0.00251057
0.00251907
0.0025381
0.00253869
0.00252058
0.00251945
0.00253958
0.00255035
0.00252919
0.00251246
0.00125539
0.0110446
0.0126248
0.012607
0.012677
0.012727
0.0126635
0.0126454
0.0127309
0.0127394
0.0126396
0.0125954
0.0112991
0.0214032
0.0226579
0.0227444
0.0228553
0.0228597
0.0228548
0.0228867
0.0228501
0.02269
0.0226275
0.0213245
0.031264
0.0327063
0.0327443
0.0327856
0.0328612
0.0328804
0.0328384
0.0327641
0.0327114
0.0315209
0.0311205
0.0413339
0.0427874
0.0427586
0.042784
0.0428069
0.0427744
0.0427432
0.0415978
0.041169
0.0511193
0.0514552
0.0515553
0.0516148
0.0515294
0.0514239
0.050973
-0.0682722
-0.0682279
-0.0681753
-0.0681385
-0.0682021
-0.0682835
-0.0693501
-0.0591163
-0.0581114
-0.0555019
-0.0554563
-0.0554453
-0.0554404
-0.0554479
-0.0555018
-0.0580642
-0.0581656
-0.058577
-0.0491134
-0.0479562
-0.0453671
-0.045301
-0.0452734
-0.0453048
-0.04529
-0.0452415
-0.0452839
-0.0453656
-0.0479142
-0.0480269
-0.037911
-0.0352908
-0.0352468
-0.0352201
-0.0377534
-0.0378953
-0.0379717
-0.0377943
-0.0352005
-0.0352478
-0.0352911
-0.0378456
-0.0379894
-0.0278566
-0.0252319
-0.025172
-0.0251525
-0.0278568
-0.0292391
-0.0298997
-0.0297274
-0.0297403
-0.0280167
-0.0251718
-0.0251753
-0.0252289
-0.0278019
-0.0289485
-0.0176942
-0.0151276
-0.0150994
-0.0176263
-0.019114
-0.0198907
-0.0178871
-0.0178674
-0.0193423
-0.0198883
-0.0177059
-0.0151009
-0.0151264
-0.0176692
-0.0189388
-0.00758714
-0.00503617
-0.00503575
-0.00758208
-0.00913834
-0.00778705
-0.00758437
-0.00879939
-0.00759264
-0.00909431
-0.00897726
-0.00503707
-0.00503699
-0.00756588
-0.00756872
0.00252941
0.00503791
0.00503879
0.0025381
0.00130062
0.00258973
0.00126111
0.00125222
0.00126645
0.00129374
0.00128802
0.00504003
0.00503743
0.00252216
0.00252232
0.0126347
0.0151262
0.0150991
0.0126198
0.0116545
0.0129082
0.01268
0.0113093
0.0128705
0.0118191
0.012732
0.0151068
0.0151295
0.0126105
0.0126752
0.0227922
0.0252289
0.0251735
0.0251655
0.0229368
0.0223787
0.0233249
0.0231142
0.022156
0.0223608
0.0251703
0.0251783
0.0252328
0.0227225
0.0214548
0.0315583
0.0328218
0.0352915
0.0352478
0.0352005
0.032794
0.0320195
0.0321459
0.0330646
0.035238
0.0352575
0.0352939
0.032796
0.0329244
0.0312259
0.0429902
0.0428695
0.0453658
0.045285
0.0452415
0.045289
0.0453085
0.0452823
0.0453088
0.0453706
0.0428576
0.0429129
0.0417173
0.0512825
0.0530777
0.0529894
0.0555023
0.0554487
0.0554412
0.0554476
0.0554597
0.0555043
0.0529581
0.0530152
0.0518455
0.0632914
0.063169
0.0630741
0.0630669
0.0630662
0.063062
0.0631036
0.0632436
0.0619843
0.0714848
0.0720666
0.0732765
0.0733315
0.0732167
0.0719788
0.0711861
-0.0797672
-0.0786995
-0.0786931
-0.0785814
-0.0794761
-0.0684676
-0.0658297
-0.0658231
-0.0658098
-0.065808
-0.065821
-0.0658349
-0.0684752
-0.0697695
-0.0586642
-0.0557173
-0.0556443
-0.0555543
-0.0554896
-0.0554646
-0.0554542
-0.0554727
-0.05555
-0.0556491
-0.0557178
-0.0583284
-0.0455695
-0.045474
-0.0453662
-0.0452375
-0.0451465
-0.0451482
-0.0451016
-0.0450636
-0.0452066
-0.0453641
-0.0454741
-0.0455679
-0.0482501
-0.0380475
-0.0354053
-0.0352829
-0.0351294
-0.0349676
-0.0374586
-0.0375029
-0.0375077
-0.0372989
-0.0348931
-0.0351363
-0.035285
-0.0354029
-0.0380367
-0.0392022
-0.0253231
-0.0252555
-0.0251262
-0.024947
-0.0274837
-0.0285758
-0.029292
-0.0288352
-0.0289478
-0.0272362
-0.0250246
-0.0251323
-0.0252522
-0.025316
-0.0278941
-0.0190051
-0.0151847
-0.0151304
-0.0150631
-0.0174704
-0.0185901
-0.0182168
-0.0191525
-0.0174875
-0.0190745
-0.0188966
-0.0174647
-0.0150489
-0.0151262
-0.0151824
-0.0177613
-0.00760972
-0.00506344
-0.00504197
-0.0050219
-0.0075193
-0.00903343
-0.00891028
-0.00840743
-0.00826546
-0.00797815
-0.00806972
-0.00853765
-0.00502029
-0.005042
-0.00506361
-0.00761434
-0.00884185
0.0025569
0.00506471
0.00504553
0.00502722
0.00251168
0.00249562
0.00246557
0.0010877
0.0010403
0.00131852
0.00117948
0.00502438
0.0050436
0.00506348
0.002544
0.00126082
0.0126907
0.0151835
0.0151287
0.0150514
0.0124648
0.011375
0.0119887
0.01053
0.0125371
0.011693
0.0126108
0.0150662
0.0151311
0.0151838
0.0126828
0.0113317
0.0214378
0.0253167
0.0252533
0.0251319
0.0250205
0.0225647
0.0219265
0.0230005
0.0215237
0.0230874
0.0217453
0.0249703
0.0251299
0.0252558
0.0253224
0.02283
0.0329603
0.0354039
0.035287
0.0351416
0.0349157
0.0322071
0.0309344
0.0312515
0.0325003
0.0349946
0.0351413
0.0352866
0.0354057
0.0329541
0.0317301
0.0418674
0.0455698
0.0454756
0.0453666
0.045212
0.045071
0.0451066
0.0451612
0.0451698
0.0452534
0.0453727
0.0454759
0.0455692
0.0431428
0.0413842
0.0532192
0.0557194
0.0556509
0.0555524
0.0554763
0.0554586
0.0554722
0.0554994
0.0555608
0.0556464
0.0557169
0.0531997
0.0520969
0.0634779
0.0633952
0.0658359
0.065822
0.0658097
0.0658121
0.0658261
0.0658317
0.0633304
0.0634398
0.0623145
0.0721441
0.0735369
0.0735514
0.0735497
0.0735324
0.0735437
0.0735377
0.0722999
0.0716115
0.0819327
0.0821856
0.0817152
-0.0784997
-0.078471
-0.0786808
-0.0783189
-0.078548
-0.0798641
-0.068273
-0.0657432
-0.0658081
-0.0658008
-0.0658002
-0.0658077
-0.0657439
-0.0682819
-0.0681865
-0.0589113
-0.0555826
-0.0555895
-0.0555206
-0.0554689
-0.0554476
-0.0554455
-0.0554648
-0.0555191
-0.0555898
-0.0555823
-0.0580744
-0.0454578
-0.0454214
-0.045322
-0.0451917
-0.0450679
-0.0450791
-0.0450825
-0.045066
-0.0451878
-0.0453227
-0.0454216
-0.0454563
-0.0479615
-0.0379319
-0.0353601
-0.0352427
-0.0350613
-0.0348806
-0.0373414
-0.0373309
-0.0374476
-0.0372287
-0.0348747
-0.0350687
-0.0352454
-0.0353596
-0.0379552
-0.0391754
-0.0284939
-0.0252817
-0.0252275
-0.0251055
-0.0249328
-0.0272072
-0.0273563
-0.0293233
-0.0276102
-0.0286569
-0.0267888
-0.0249499
-0.0251083
-0.0252266
-0.0252778
-0.0277751
-0.0177835
-0.0151735
-0.0151203
-0.0150415
-0.0174647
-0.017211
-0.0182764
-0.0180454
-0.0177961
-0.0178652
-0.0192767
-0.0174547
-0.0150396
-0.0151194
-0.0151715
-0.0177422
-0.0185256
-0.00764865
-0.00506557
-0.00504027
-0.00502013
-0.0075086
-0.00913781
-0.00875691
-0.00704895
-0.00833151
-0.00896611
-0.00800927
-0.007092
-0.0050238
-0.00504374
-0.00506662
-0.00762373
-0.00891284
0.00260819
0.00506886
0.00504963
0.00503662
0.00251212
0.0024901
0.00267695
0.00107705
0.00119448
0.00250884
0.00108877
0.00502188
0.00504249
0.00506559
0.00255409
0.00128585
0.0126245
0.0151737
0.0151247
0.0150518
0.0124728
0.0113754
0.0118451
0.0110589
0.0109299
0.012691
0.0117022
0.0123519
0.0150365
0.0151196
0.0151715
0.0126578
0.0113875
0.0214973
0.0252793
0.0252291
0.0251118
0.0249536
0.0221992
0.0226664
0.023793
0.0226963
0.0237531
0.0222662
0.0249139
0.0251005
0.0252259
0.0252789
0.0227526
0.0328905
0.0353609
0.0352481
0.0350751
0.034887
0.0322728
0.0320632
0.0324399
0.0323815
0.0348837
0.0350593
0.0352425
0.0353601
0.0328998
0.0328831
0.0429618
0.0454589
0.0454242
0.045327
0.045195
0.0450768
0.0450945
0.0451057
0.045106
0.0452082
0.0453259
0.0454229
0.0454584
0.0430106
0.0415216
0.0530486
0.0555845
0.055593
0.0555227
0.0554701
0.055452
0.0554589
0.055482
0.0555277
0.055591
0.0555837
0.0530719
0.0517006
0.0631776
0.0632669
0.0657451
0.0658089
0.0658025
0.0658038
0.0658113
0.065745
0.0632516
0.0632611
0.0617868
0.0720832
0.0732235
0.0734822
0.073533
0.0734495
0.0735114
0.0734041
0.0732713
0.0717819
0.0814012
0.0823795
0.0816456
0.0821475
-0.0784644
-0.0784543
-0.0786646
-0.0782531
-0.0785342
-0.0798611
-0.0682462
-0.0657196
-0.065795
-0.0657851
-0.0657858
-0.0657967
-0.0657204
-0.0682388
-0.0681674
-0.058908
-0.0555508
-0.0555623
-0.0555071
-0.0554657
-0.0554476
-0.0554529
-0.0554736
-0.0555097
-0.0555615
-0.0555497
-0.0580424
-0.0454314
-0.0453949
-0.0453063
-0.0452012
-0.0450978
-0.0451052
-0.0451291
-0.0451313
-0.045211
-0.0453075
-0.0453946
-0.0454295
-0.047929
-0.0379133
-0.0353392
-0.0352268
-0.0350595
-0.0349202
-0.0373962
-0.0373267
-0.0375342
-0.0374136
-0.0349191
-0.0350589
-0.0352279
-0.0353388
-0.0379257
-0.0391688
-0.0284918
-0.0252692
-0.0252154
-0.0251069
-0.0249579
-0.0272557
-0.0274408
-0.0277669
-0.0276865
-0.0282841
-0.0268524
-0.0249623
-0.0251123
-0.0252159
-0.0252655
-0.0277611
-0.0177832
-0.0151691
-0.0151156
-0.0150448
-0.0175026
-0.0173816
-0.0183711
-0.0184993
-0.0182009
-0.0184159
-0.0174812
-0.0175573
-0.0150632
-0.0151202
-0.0151672
-0.0177342
-0.0185229
-0.00764783
-0.00506588
-0.00503894
-0.00501852
-0.00752051
-0.00737737
-0.00789716
-0.00776892
-0.00906427
-0.00779934
-0.00819918
-0.00716318
-0.00503729
-0.00504622
-0.00506749
-0.00762315
-0.00891802
0.00261611
0.00507065
0.00505376
0.00505102
0.00253581
0.00248807
0.00268791
0.00131929
0.00256855
0.00260098
0.00238314
0.00502764
0.00504388
0.00506644
0.00255765
0.00128758
0.0126225
0.0151703
0.0151266
0.0150745
0.0125549
0.0131331
0.0130614
0.0130275
0.0129483
0.0130899
0.0131889
0.0122133
0.0150487
0.0151172
0.0151666
0.012652
0.0113898
0.0214965
0.0252673
0.0252191
0.0251157
0.024957
0.0219115
0.0227708
0.0240207
0.023297
0.0237724
0.0222761
0.0249398
0.025104
0.0252147
0.0252661
0.0227378
0.0328703
0.0353405
0.0352304
0.0350623
0.0349365
0.0325262
0.0321077
0.0325091
0.0321142
0.0349125
0.0350505
0.0352249
0.0353395
0.0328734
0.0328741
0.0429509
0.0454329
0.0453977
0.0453121
0.0452191
0.0451414
0.0451335
0.0451183
0.0451169
0.045206
0.0453047
0.045395
0.0454322
0.0429818
0.0415222
0.053024
0.0555529
0.0555654
0.0555139
0.0554782
0.0554567
0.0554529
0.0554711
0.0555085
0.0555613
0.0555519
0.0530329
0.0516589
0.0631416
0.0632205
0.0657214
0.0657977
0.0657871
0.0657862
0.0657961
0.0657199
0.0632064
0.06322
0.0617389
0.0720713
0.0731835
0.0734568
0.0735007
0.0733926
0.0734851
0.0733732
0.0732516
0.0717707
0.0813796
0.0823706
0.0814779
0.0821392
-0.0784645
-0.0784537
-0.0786631
-0.0782505
-0.0785332
-0.0798611
-0.0682429
-0.0657177
-0.0657952
-0.0657843
-0.0657844
-0.0657955
-0.0657175
-0.0682326
-0.0681657
-0.058908
-0.0555459
-0.0555571
-0.055509
-0.0554769
-0.0554583
-0.055459
-0.0554777
-0.0555079
-0.0555547
-0.0555446
-0.0580395
-0.0454272
-0.0453882
-0.0453047
-0.0452194
-0.0451443
-0.0451426
-0.0451441
-0.0451484
-0.0452188
-0.0453027
-0.0453865
-0.0454246
-0.0479269
-0.0379107
-0.0353336
-0.0352215
-0.035061
-0.0349373
-0.0374861
-0.0374391
-0.037565
-0.0374425
-0.0349326
-0.0350585
-0.0352206
-0.0353319
-0.0379196
-0.0391684
-0.028492
-0.0252669
-0.0252119
-0.0251071
-0.0249581
-0.0272655
-0.0274622
-0.027772
-0.0277252
-0.0282774
-0.0268453
-0.0249651
-0.0251111
-0.0252107
-0.0252625
-0.0277596
-0.0177833
-0.0151684
-0.0151157
-0.0150509
-0.017514
-0.0173545
-0.0184077
-0.0185513
-0.0182827
-0.018518
-0.0174957
-0.0175559
-0.0150649
-0.0151173
-0.0151652
-0.0177329
-0.018523
-0.00764755
-0.00506626
-0.00504002
-0.00502037
-0.00752074
-0.00727868
-0.00796214
-0.00783221
-0.00911439
-0.00787563
-0.0083435
-0.00720047
-0.00503306
-0.00504298
-0.00506616
-0.00762234
-0.00891779
0.00261617
0.00506996
0.00505215
0.00505024
0.00254871
0.00244312
0.00266323
0.00130824
0.00261693
0.00264106
0.00243535
0.00503619
0.005048
0.00506774
0.00255806
0.00128766
0.0126223
0.0151687
0.0151243
0.0150751
0.0125739
0.0132155
0.0131149
0.0131154
0.0130256
0.0131406
0.013162
0.0121356
0.0150622
0.0151209
0.0151669
0.0126515
0.0113897
0.0214963
0.0252646
0.0252148
0.0251153
0.0249558
0.0217817
0.0226918
0.0240734
0.0233251
0.0238767
0.0223464
0.0249565
0.0251107
0.0252141
0.0252644
0.0227367
0.0328668
0.0353342
0.0352237
0.0350604
0.0349394
0.0325531
0.0320838
0.0324858
0.0320721
0.0349233
0.0350499
0.0352204
0.0353348
0.0328677
0.0328733
0.0429498
0.0454284
0.0453901
0.0453078
0.0452276
0.0451587
0.0451425
0.0451238
0.0451193
0.0452006
0.0452957
0.045387
0.0454281
0.0429783
0.0415224
0.0530215
0.0555479
0.0555591
0.055513
0.055482
0.0554577
0.055449
0.0554642
0.0554995
0.0555525
0.0555466
0.0530271
0.0516577
0.0631391
0.0632119
0.0657188
0.0657964
0.065784
0.0657817
0.0657917
0.0657151
0.063196
0.0632145
0.0617376
0.0720709
0.0731809
0.0734536
0.0734951
0.0733849
0.0734804
0.0733704
0.0732499
0.0717706
0.0813797
0.0823707
0.0814783
0.0821392
-0.0784645
-0.0784536
-0.0786628
-0.07825
-0.0785329
-0.079861
-0.0682422
-0.0657174
-0.0657954
-0.065784
-0.0657829
-0.0657937
-0.0657157
-0.0682313
-0.0681653
-0.0589078
-0.0555443
-0.055555
-0.0555088
-0.0554789
-0.0554585
-0.0554546
-0.0554704
-0.0555014
-0.0555506
-0.0555424
-0.0580393
-0.0454254
-0.0453839
-0.0453002
-0.0452206
-0.0451519
-0.045145
-0.045137
-0.045132
-0.0452048
-0.0452936
-0.0453808
-0.0454224
-0.0479265
-0.0379101
-0.0353297
-0.0352135
-0.0350506
-0.0349324
-0.0375041
-0.0374536
-0.037567
-0.0374382
-0.0349144
-0.0350432
-0.0352093
-0.0353265
-0.0379179
-0.0391683
-0.028492
-0.0252657
-0.025207
-0.0250954
-0.0249421
-0.0272415
-0.0274604
-0.0277579
-0.0277373
-0.0282974
-0.0268675
-0.0249298
-0.0250849
-0.0252005
-0.0252599
-0.0277592
-0.0177832
-0.0151678
-0.0151131
-0.0150455
-0.0175152
-0.0173571
-0.0184275
-0.0185411
-0.0182798
-0.0184946
-0.0174807
-0.0175456
-0.015031
-0.0151045
-0.0151619
-0.0177323
-0.018523
-0.00764754
-0.00506734
-0.00504268
-0.00502608
-0.00754495
-0.00728127
-0.00800437
-0.0078454
-0.0091143
-0.00782328
-0.00827061
-0.00711792
-0.00500841
-0.00503269
-0.00506326
-0.00762174
-0.00891776
0.00261608
0.00506725
0.00504408
0.00503515
0.00253615
0.00242709
0.00261185
0.00130416
0.00257895
0.00269949
0.00246898
0.00505311
0.00505548
0.00506985
0.00255852
0.00128767
0.0126222
0.0151652
0.0151131
0.0150524
0.0125388
0.0131193
0.0130759
0.0130744
0.0129785
0.0131365
0.0132354
0.0121145
0.0150695
0.0151252
0.015168
0.0126517
0.0113897
0.0214963
0.025262
0.0252057
0.0250976
0.0249381
0.0218566
0.0227194
0.024023
0.0233049
0.0237635
0.0222794
0.0249359
0.0251101
0.0252151
0.0252646
0.0227366
0.0328657
0.0353286
0.0352127
0.0350474
0.034926
0.0325343
0.0321051
0.0325074
0.0320919
0.0348776
0.0350325
0.0352164
0.0353338
0.0328667
0.0328732
0.0429495
0.0454261
0.0453844
0.0453003
0.0452211
0.0451525
0.0451288
0.0450833
0.0450674
0.0451721
0.0452848
0.0453833
0.0454272
0.0429778
0.0415223
0.053021
0.0555458
0.0555557
0.0555094
0.055478
0.0554502
0.0554357
0.0554485
0.0554885
0.0555477
0.055545
0.0530261
0.0516575
0.0631387
0.0632099
0.0657177
0.065795
0.0657815
0.0657779
0.0657879
0.0657124
0.0631928
0.0632133
0.0617374
0.0720708
0.0731805
0.0734529
0.0734938
0.0733832
0.0734791
0.0733697
0.0732496
0.0717706
0.0813796
0.0823707
0.0814783
0.0821392
-0.0784645
-0.0784535
-0.0786627
-0.0782499
-0.0785328
-0.079861
-0.0682419
-0.0657158
-0.065793
-0.0657809
-0.0657791
-0.0657897
-0.0657131
-0.0682306
-0.0681652
-0.0589079
-0.0555428
-0.0555512
-0.0555026
-0.0554706
-0.0554481
-0.0554399
-0.0554533
-0.05549
-0.0555462
-0.0555409
-0.0580388
-0.0454235
-0.0453783
-0.0452903
-0.0452085
-0.0451379
-0.0451265
-0.0450988
-0.0450742
-0.0451742
-0.0452834
-0.0453762
-0.0454209
-0.0479264
-0.0379098
-0.035325
-0.0352013
-0.0350313
-0.0349148
-0.0374942
-0.0374382
-0.0375327
-0.0373597
-0.0348807
-0.0350307
-0.0352002
-0.0353227
-0.037917
-0.0391683
-0.028492
-0.0252643
-0.0251997
-0.0250701
-0.0248951
-0.0272139
-0.0274447
-0.0277513
-0.0276922
-0.0282972
-0.0268213
-0.0248755
-0.025057
-0.0251919
-0.0252581
-0.027759
-0.0177832
-0.0151671
-0.0151087
-0.0150252
-0.0174576
-0.0172868
-0.0181852
-0.0184632
-0.0181356
-0.0181943
-0.0173568
-0.017323
-0.0149891
-0.0150932
-0.0151593
-0.0177318
-0.018523
-0.00764757
-0.00506902
-0.00504646
-0.00502728
-0.0075121
-0.00816809
-0.00830226
-0.00785886
-0.00908987
-0.0074746
-0.00876489
-0.00699732
-0.00498154
-0.00502454
-0.00506126
-0.00762127
-0.00891775
0.00261592
0.00506272
0.00502887
0.00500307
0.00252256
0.0023779
0.00239914
0.00128005
0.00266612
0.00281349
0.00252875
0.00506655
0.00506
0.005071
0.00255887
0.00128768
0.012622
0.0151597
0.0150931
0.0149998
0.0124726
0.0131754
0.0130147
0.0127854
0.012899
0.0131261
0.0132051
0.0121585
0.0150776
0.0151277
0.0151686
0.0126518
0.0113897
0.0214962
0.0252583
0.0251908
0.0250616
0.0248895
0.0217808
0.0227292
0.0237856
0.0218131
0.0237889
0.0222505
0.0249324
0.0251149
0.0252171
0.025265
0.0227367
0.0328648
0.0353212
0.0351957
0.0350238
0.0349023
0.0325274
0.0320992
0.0324476
0.0322941
0.0348298
0.0350363
0.0352213
0.0353353
0.0328669
0.0328731
0.0429493
0.0454235
0.0453769
0.0452884
0.0452075
0.0451361
0.0451035
0.0450718
0.0450524
0.0451553
0.0452851
0.0453851
0.0454278
0.0429778
0.0415224
0.0530207
0.0555436
0.0555512
0.0555023
0.0554689
0.0554402
0.0554282
0.055442
0.0554832
0.0555471
0.0555455
0.0530259
0.0516575
0.0631385
0.0632089
0.0657157
0.0657923
0.0657785
0.0657753
0.0657859
0.0657112
0.0631916
0.0632131
0.0617374
0.0720708
0.0731803
0.0734525
0.0734932
0.0733824
0.0734784
0.0733694
0.0732495
0.0717706
0.0813796
0.0823707
0.0814782
0.0821392
-0.0784645
-0.0784535
-0.0786625
-0.0782497
-0.0785326
-0.079861
-0.0682417
-0.0657127
-0.0657884
-0.0657763
-0.0657756
-0.0657871
-0.0657113
-0.0682303
-0.0681651
-0.0589079
-0.0555408
-0.0555457
-0.0554903
-0.0554522
-0.055431
-0.0554294
-0.0554452
-0.0554831
-0.0555437
-0.0555402
-0.0580389
-0.0454221
-0.0453726
-0.0452764
-0.0451808
-0.045093
-0.0450873
-0.0450846
-0.045058
-0.0451587
-0.0452793
-0.0453751
-0.0454209
-0.0479264
-0.0379097
-0.0353221
-0.035192
-0.0350114
-0.0348896
-0.0374584
-0.0374018
-0.0374822
-0.037273
-0.0349107
-0.035041
-0.0352021
-0.0353234
-0.0379169
-0.0391683
-0.028492
-0.0252637
-0.0251961
-0.0250591
-0.0248665
-0.0271904
-0.0274827
-0.0277514
-0.0276777
-0.0288023
-0.0274488
-0.0248964
-0.0250679
-0.0251952
-0.0252588
-0.027759
-0.0177832
-0.0151671
-0.0151071
-0.0150193
-0.0174032
-0.0183377
-0.0180238
-0.0182237
-0.0177093
-0.019308
-0.0188513
-0.0173714
-0.0150107
-0.0150992
-0.0151607
-0.0177319
-0.018523
-0.00764767
-0.00507119
-0.005053
-0.00503756
-0.00751222
-0.00908809
-0.00891943
-0.00850965
-0.00869752
-0.00810443
-0.00754285
-0.00719732
-0.00500021
-0.00503099
-0.00506289
-0.00762134
-0.00891775
0.0026157
0.00505814
0.00501124
0.0049524
0.00246098
0.000941078
0.00182982
0.00102226
0.00302957
0.00287663
0.00245598
0.00504689
0.00505341
0.00506936
0.00255872
0.00128769
0.0126218
0.0151549
0.0150751
0.0149553
0.0123665
0.0111581
0.0127843
0.0121112
0.0114506
0.0133801
0.0132964
0.0122089
0.015067
0.0151235
0.0151676
0.0126517
0.0113897
0.0214962
0.0252552
0.0251775
0.0250257
0.0248321
0.0218381
0.0227302
0.0235952
0.021079
0.0223554
0.0216405
0.0250589
0.0251323
0.0252195
0.025265
0.0227367
0.0328641
0.0353147
0.0351801
0.0350025
0.0348915
0.0325253
0.0320936
0.0312407
0.032427
0.0349712
0.0351211
0.0352427
0.0353398
0.0328675
0.0328732
0.0429492
0.0454211
0.0453695
0.0452745
0.0451856
0.0451121
0.0450931
0.0450823
0.0450673
0.0451769
0.0453076
0.0453942
0.0454298
0.0429781
0.0415224
0.0530205
0.0555412
0.0555455
0.0554911
0.0554552
0.055431
0.0554277
0.0554462
0.0554886
0.0555523
0.0555478
0.0530266
0.0516575
0.0631383
0.0632079
0.0657126
0.0657882
0.0657755
0.0657743
0.0657863
0.0657121
0.0631923
0.0632134
0.0617374
0.0720707
0.0731801
0.0734519
0.0734926
0.073382
0.0734783
0.0733694
0.0732495
0.0717706
0.0813796
0.0823707
0.0814782
0.0821392
-0.0784645
-0.0784534
-0.0786624
-0.0782496
-0.0785326
-0.079861
-0.0682414
-0.0657098
-0.0657843
-0.0657728
-0.0657737
-0.0657862
-0.0657108
-0.0682302
-0.0681651
-0.0589079
-0.0555394
-0.0555408
-0.0554776
-0.0554361
-0.0554182
-0.0554243
-0.0554442
-0.0554808
-0.0555426
-0.0555403
-0.0580388
-0.0454219
-0.0453698
-0.0452644
-0.0451456
-0.0450397
-0.0450489
-0.0450831
-0.045069
-0.0451513
-0.0452754
-0.0453756
-0.0454216
-0.0479265
-0.0379097
-0.0353226
-0.0351907
-0.0349991
-0.0348426
-0.0373649
-0.0372794
-0.0374727
-0.0373984
-0.0348435
-0.0350267
-0.0352059
-0.0353265
-0.0379173
-0.0391683
-0.028492
-0.0252644
-0.0251991
-0.0250696
-0.0248884
-0.0271676
-0.0274562
-0.0284143
-0.0289029
-0.0290381
-0.0270627
-0.0249311
-0.0250941
-0.0252048
-0.0252612
-0.0277592
-0.0177832
-0.0151682
-0.0151106
-0.0150253
-0.017451
-0.0173677
-0.0181176
-0.0176007
-0.0187955
-0.0183204
-0.0174226
-0.0175374
-0.0150561
-0.0151142
-0.0151645
-0.0177323
-0.018523
-0.00764773
-0.00507242
-0.00505757
-0.00505128
-0.00752106
-0.00838647
-0.00723898
-0.00797466
-0.00843177
-0.00735625
-0.00816752
-0.0072207
-0.00503882
-0.00504508
-0.00506667
-0.00762191
-0.00891775
0.0026156
0.00505697
0.00500663
0.00493616
0.00238343
0.00147167
0.00131312
0.0023656
0.00276918
0.00242743
0.00501819
0.00504217
0.00506632
0.00255816
0.00128768
0.0126217
0.0151542
0.015073
0.0149503
0.0123054
0.0109742
0.0121901
0.0120458
0.0116294
0.0111417
0.0121658
0.0123867
0.0150544
0.0151168
0.0151656
0.0126513
0.0113897
0.0214962
0.0252548
0.0251758
0.0250215
0.0248268
0.0219244
0.0226551
0.023729
0.0227201
0.0218826
0.0214493
0.0250849
0.0251296
0.0252173
0.0252643
0.0227366
0.0328638
0.0353134
0.0351764
0.0349932
0.0348407
0.0324421
0.0321245
0.0324648
0.0322362
0.0350417
0.0351574
0.0352505
0.0353411
0.032868
0.0328732
0.0429491
0.0454203
0.0453658
0.0452613
0.0451419
0.0450412
0.0450632
0.0450705
0.0450604
0.0451953
0.0453211
0.0453989
0.0454309
0.0429784
0.0415224
0.0530203
0.0555396
0.0555396
0.0554747
0.0554326
0.0554177
0.0554248
0.055449
0.0554951
0.0555564
0.0555492
0.0530271
0.0516576
0.0631382
0.0632069
0.0657089
0.065783
0.065772
0.0657738
0.0657874
0.0657137
0.0631937
0.0632138
0.0617375
0.0720707
0.0731799
0.0734514
0.073492
0.0733818
0.0734785
0.0733695
0.0732496
0.0717706
0.0813796
0.0823707
0.0814782
0.0821392
-0.0784645
-0.0784533
-0.0786623
-0.0782496
-0.0785327
-0.079861
-0.0682414
-0.0657093
-0.065784
-0.065773
-0.0657742
-0.065787
-0.0657119
-0.0682305
-0.0681652
-0.0589078
-0.0555401
-0.0555406
-0.0554737
-0.0554316
-0.0554159
-0.0554199
-0.0554416
-0.0554831
-0.0555447
-0.0555417
-0.0580392
-0.0454232
-0.045372
-0.0452632
-0.0451291
-0.0450251
-0.0450467
-0.0450485
-0.0450463
-0.0451548
-0.0452776
-0.0453789
-0.0454233
-0.0479266
-0.0379098
-0.0353259
-0.0351968
-0.0350008
-0.0348029
-0.0372851
-0.0373359
-0.0374258
-0.0372967
-0.0348505
-0.0350224
-0.0352108
-0.0353303
-0.0379179
-0.0391683
-0.028492
-0.0252659
-0.025205
-0.0250853
-0.0249146
-0.0271539
-0.0282825
-0.0292132
-0.0285365
-0.0291165
-0.0268091
-0.0249302
-0.025106
-0.0252118
-0.0252634
-0.0277593
-0.0177833
-0.0151695
-0.0151159
-0.0150448
-0.0174903
-0.0173342
-0.0178076
-0.0183165
-0.0180701
-0.0184397
-0.0173637
-0.0175363
-0.0150716
-0.0151234
-0.0151676
-0.0177326
-0.018523
-0.00764774
-0.00507177
-0.00505569
-0.00504838
-0.00754722
-0.00725741
-0.00749511
-0.00833183
-0.00865705
-0.00828828
-0.00835404
-0.00723327
-0.00505508
-0.00505363
-0.00506946
-0.00762243
-0.00891777
0.00261569
0.00506007
0.00501906
0.00498126
0.00243775
0.00245338
0.00313994
0.00151033
0.00113512
0.00166238
0.00235567
0.00500832
0.00503587
0.00506441
0.00255773
0.00128766
0.0126218
0.015158
0.0150873
0.0149906
0.0123931
0.0112938
0.0114546
0.0125444
0.0122044
0.0123601
0.0150388
0.015112
0.0151644
0.0126511
0.0113897
0.0214962
0.0252574
0.0251862
0.0250496
0.0248974
0.0223921
0.0216506
0.023486
0.023107
0.0236762
0.0217688
0.0249602
0.0251038
0.0252115
0.0252634
0.0227365
0.0328643
0.0353183
0.0351856
0.0349988
0.0347824
0.032095
0.0319262
0.0324985
0.032036
0.0349322
0.0350868
0.0352341
0.0353378
0.0328675
0.0328731
0.0429492
0.0454219
0.0453685
0.0452577
0.045108
0.0449697
0.0450335
0.0450872
0.0450938
0.0452
0.0453114
0.0453953
0.0454303
0.0429784
0.0415224
0.0530204
0.0555403
0.0555383
0.0554658
0.0554185
0.0554117
0.0554292
0.0554567
0.0554999
0.0555569
0.0555492
0.0530273
0.0516576
0.0631382
0.0632067
0.0657074
0.065781
0.0657718
0.065776
0.0657903
0.0657155
0.0631946
0.0632141
0.0617375
0.0720707
0.0731798
0.0734511
0.0734918
0.0733821
0.0734789
0.0733699
0.0732497
0.0717706
0.0813796
0.0823707
0.0814782
0.0821392
-0.0784645
-0.0784535
-0.0786627
-0.07825
-0.0785329
-0.079861
-0.0682419
-0.0657138
-0.0657905
-0.0657809
-0.065782
-0.0657938
-0.0657168
-0.0682316
-0.0681655
-0.0589079
-0.0555445
-0.0555493
-0.0554869
-0.0554468
-0.0554336
-0.055437
-0.0554572
-0.0554979
-0.0555541
-0.0555461
-0.0580394
-0.0454269
-0.0453828
-0.0452806
-0.0451488
-0.045038
-0.0450649
-0.0450733
-0.0450708
-0.0451805
-0.0452968
-0.0453898
-0.0454271
-0.0479268
-0.0379102
-0.0353328
-0.0352114
-0.0350179
-0.0348276
-0.0372937
-0.0372883
-0.0374618
-0.0373002
-0.034887
-0.035045
-0.0352251
-0.035337
-0.0379191
-0.0391684
-0.028492
-0.025268
-0.0252116
-0.0250935
-0.0249151
-0.0271788
-0.0273288
-0.0285419
-0.0276829
-0.0282689
-0.0268522
-0.0249439
-0.0251122
-0.0252179
-0.0252657
-0.0277596
-0.0177833
-0.0151709
-0.0151192
-0.0150471
-0.0175036
-0.0173725
-0.0181238
-0.017907
-0.018204
-0.0185398
-0.0174239
-0.0175385
-0.0150699
-0.0151269
-0.0151697
-0.0177329
-0.018523
-0.00764771
-0.00507032
-0.00505039
-0.00503551
-0.00754244
-0.0072967
-0.00782389
-0.00762086
-0.00906199
-0.00809249
-0.0083543
-0.00719835
-0.00505121
-0.00505438
-0.00507041
-0.00762269
-0.00891775
0.00261589
0.00506465
0.00503439
0.0050117
0.00249943
0.00233378
0.00276823
0.00134653
0.00213281
0.0022564
0.00230701
0.00501511
0.00503805
0.0050648
0.00255765
0.00128766
0.0126221
0.0151638
0.0151055
0.0150303
0.0124893
0.013083
0.0132155
0.013196
0.0129278
0.0128665
0.0130373
0.0121517
0.0150408
0.0151138
0.0151655
0.0126512
0.0113897
0.0214962
0.0252619
0.0252021
0.0250817
0.0249149
0.0218838
0.0226028
0.0233924
0.0232247
0.0238067
0.0223611
0.0249293
0.0250997
0.0252126
0.0252644
0.0227366
0.0328654
0.0353287
0.0352065
0.0350156
0.0348184
0.0322596
0.0320474
0.0324812
0.0320379
0.0348985
0.0350554
0.0352299
0.035339
0.0328678
0.0328732
0.0429495
0.0454267
0.045381
0.0452764
0.0451341
0.0450134
0.0450649
0.0451032
0.0451055
0.0452041
0.0453115
0.0453976
0.0454315
0.0429785
0.0415224
0.0530209
0.0555449
0.0555475
0.0554802
0.055437
0.0554318
0.0554482
0.0554722
0.0555099
0.0555615
0.0555515
0.0530279
0.0516577
0.0631385
0.0632083
0.0657122
0.065788
0.0657802
0.0657843
0.0657971
0.0657196
0.0631966
0.0632147
0.0617376
0.0720707
0.0731801
0.0734519
0.0734931
0.0733837
0.0734802
0.0733705
0.0732499
0.0717706
0.0813796
0.0823707
0.0814783
0.0821392
-0.0784645
-0.078454
-0.0786635
-0.078251
-0.0785337
-0.0798611
-0.0682431
-0.0657257
-0.0658081
-0.0658014
-0.0658023
-0.0658108
-0.065728
-0.0682339
-0.068166
-0.058908
-0.0555543
-0.0555722
-0.0555271
-0.0555001
-0.0554918
-0.0554945
-0.0555073
-0.0555344
-0.0555754
-0.0555554
-0.0580404
-0.0454352
-0.0454101
-0.0453357
-0.0452195
-0.0451059
-0.0451371
-0.0451433
-0.0451233
-0.0452379
-0.0453469
-0.0454151
-0.0454349
-0.0479273
-0.037911
-0.0353489
-0.0352546
-0.0350998
-0.0349057
-0.0373255
-0.0373183
-0.0374894
-0.0372955
-0.0349213
-0.0351182
-0.0352647
-0.0353518
-0.0379212
-0.0391684
-0.028492
-0.0252725
-0.0252281
-0.0251233
-0.0249523
-0.0271692
-0.027351
-0.0284042
-0.0276917
-0.0287121
-0.0268067
-0.0249746
-0.0251376
-0.025233
-0.0252701
-0.0277599
-0.0177834
-0.0151745
-0.0151294
-0.0150562
-0.0174671
-0.0171668
-0.0183734
-0.0183343
-0.0181637
-0.0184039
-0.0192248
-0.0174637
-0.015074
-0.0151361
-0.0151733
-0.0177333
-0.018523
-0.00764771
-0.00507022
-0.0050491
-0.00503056
-0.00751646
-0.00820137
-0.00790755
-0.0077733
-0.00909547
-0.00786605
-0.0082606
-0.00710428
-0.00504321
-0.00505447
-0.00507124
-0.00762276
-0.00891775
0.0026161
0.0050691
0.00504657
0.00503163
0.00251664
0.00239681
0.00262764
0.00131003
0.00254302
0.00255979
0.00234856
0.0050341
0.00504585
0.00506726
0.00255804
0.00128768
0.0126223
0.0151712
0.0151271
0.0150611
0.0124775
0.0110941
0.0130259
0.0130384
0.0129406
0.0130179
0.0130451
0.0121923
0.0150631
0.0151284
0.0151701
0.0126518
0.0113897
0.0214963
0.0252686
0.0252264
0.0251283
0.024974
0.0218878
0.021856
0.0239785
0.0232079
0.0238166
0.0222242
0.0249693
0.0251304
0.0252289
0.025269
0.0227372
0.0328671
0.035348
0.0352561
0.0351055
0.0349001
0.0322452
0.0319996
0.0324719
0.0320178
0.0349315
0.0351198
0.035265
0.0353524
0.0328707
0.0328735
0.04295
0.045436
0.0454105
0.045335
0.0452136
0.0450921
0.0451332
0.0451574
0.0451402
0.0452494
0.0453533
0.0454192
0.0454383
0.0429797
0.0415224
0.0530218
0.0555554
0.0555717
0.0555236
0.0554949
0.0554909
0.055501
0.0555159
0.0555412
0.0555798
0.0555595
0.05303
0.0516577
0.0631392
0.0632122
0.0657249
0.0658069
0.0658012
0.0658038
0.0658128
0.0657298
0.0632019
0.0632164
0.0617377
0.0720709
0.073181
0.0734542
0.0734965
0.0733872
0.0734829
0.0733719
0.0732504
0.0717706
0.0813797
0.0823707
0.0814783
0.0821392
-0.0784645
-0.0784548
-0.078665
-0.0782526
-0.0785348
-0.0798612
-0.0682451
-0.0657452
-0.0658375
-0.0658359
-0.0658365
-0.0658391
-0.0657465
-0.0682375
-0.0681668
-0.0589079
-0.0555693
-0.0556093
-0.0555977
-0.0555999
-0.0556028
-0.0556042
-0.0556032
-0.0556006
-0.0556101
-0.0555697
-0.0580414
-0.0454482
-0.0454541
-0.0454332
-0.0453866
-0.0453487
-0.0454
-0.0454014
-0.0453525
-0.0453918
-0.0454377
-0.0454561
-0.0454469
-0.047928
-0.0379123
-0.0353757
-0.0353335
-0.0352987
-0.0352676