/*--------------------------------*- C++ -*----------------------------------*\
  =========                 |
  \\      /  F ield         | OpenFOAM: The Open Source CFD Toolbox
   \\    /   O peration     | Website:  https://openfoam.org
    \\  /    A nd           | Version:  9
     \\/     M anipulation  |
\*---------------------------------------------------------------------------*/
FoamFile
{
    format      ascii;
    class       volScalarField;
    location    "0";
    object      Cz;
}
// * * * * * * * * * * * * * * * * * * * * * * * * * * * * * * * * * * * * * //

dimensions      [0 1 0 0 0 0 0];

internalField   nonuniform List<scalar> 
66832
(
-0.0386229
-0.0386325
-0.0386228
-0.0386959
-0.0388943
-0.0385909
-0.0386327
-0.0388949
-0.039114
-0.0387585
-0.0385908
-0.0387577
-0.0385484
-0.0286742
-0.0288415
-0.0287009
-0.0291187
-0.0283673
-0.0283411
-0.0284218
-0.0283483
-0.029596
-0.0289351
-0.0294927
-0.0284251
-0.0284498
-0.0283897
-0.0284167
-0.0284036
-0.0284626
-0.0284553
-0.0293094
-0.0291183
-0.0284244
-0.0284662
-0.0284431
-0.0283299
-0.0282993
-0.0283736
-0.0285026
-0.0284408
-0.0284282
-0.0288452
-0.0283682
-0.0284509
-0.0284447
-0.0282864
-0.0280858
-0.0280436
-0.0281748
-0.0283807
-0.0284455
-0.028421
-0.0295561
-0.0286744
-0.0283423
-0.0283911
-0.0283272
-0.0280863
-0.0278578
-0.0278397
-0.0279269
-0.0282271
-0.0284033
-0.0283426
-0.0296489
-0.0288429
-0.0284229
-0.0284181
-0.0282943
-0.0280408
-0.027838
-0.0278382
-0.0278881
-0.0282052
-0.0283901
-0.0283876
-0.0298231
-0.0287019
-0.0283481
-0.0284038
-0.028364
-0.0281673
-0.0279273
-0.0278892
-0.0280411
-0.028289
-0.0284366
-0.0283882
-0.0295916
-0.0295984
-0.0284601
-0.0284477
-0.0283632
-0.0282296
-0.0282098
-0.0282911
-0.028483
-0.0284419
-0.0283619
-0.0293776
-0.028935
-0.0284569
-0.0284335
-0.0284411
-0.0284032
-0.0283922
-0.0284367
-0.0284422
-0.0284277
-0.0298621
-0.0286382
-0.02931
-0.0284296
-0.028421
-0.0283415
-0.0283861
-0.028387
-0.0283613
-0.0298648
-0.0291775
-0.0288474
-0.029555
-0.0296506
-0.0298228
-0.0295908
-0.0293776
-0.0286373
-0.0184158
-0.0183955
-0.0184037
-0.0183552
-0.0183955
-0.01842
-0.0194396
-0.0191437
-0.0184249
-0.0157739
-0.0157611
-0.0157586
-0.015758
-0.0157592
-0.0157734
-0.0183922
-0.0183792
-0.0184836
-0.0191436
-0.0183461
-0.0157827
-0.0157425
-0.0157296
-0.0157255
-0.0157247
-0.0157243
-0.0157385
-0.0157815
-0.018345
-0.018393
-0.0184284
-0.0157846
-0.0157718
-0.0157576
-0.0183968
-0.0184253
-0.0184328
-0.0184183
-0.01575
-0.0157701
-0.0157817
-0.0183908
-0.0184247
-0.0184214
-0.0157778
-0.0157485
-0.0157596
-0.0184822
-0.0199282
-0.0198878
-0.0195453
-0.0198909
-0.018597
-0.0157593
-0.0157419
-0.0157735
-0.0184084
-0.0189787
-0.0183961
-0.0157666
-0.0157454
-0.0184089
-0.019931
-0.0194293
-0.0176984
-0.0176583
-0.0189651
-0.019763
-0.018527
-0.0157302
-0.0157612
-0.018365
-0.0197061
-0.0184043
-0.0157651
-0.0157444
-0.0184431
-0.0198892
-0.0177805
-0.0176496
-0.0188884
-0.0176338
-0.0189994
-0.0198767
-0.015739
-0.0157627
-0.0183829
-0.0182976
-0.018356
-0.0157627
-0.0157395
-0.0184564
-0.0195345
-0.0177207
-0.0188553
-0.0188383
-0.0188541
-0.0189251
-0.0197683
-0.0157459
-0.0157659
-0.0183974
-0.0183223
-0.0183955
-0.0157611
-0.0157307
-0.0184303
-0.019894
-0.0177371
-0.0176442
-0.0188655
-0.0176576
-0.0190822
-0.0186142
-0.0157498
-0.0157677
-0.0183573
-0.0182901
-0.0184183
-0.0157727
-0.0157419
-0.0157586
-0.0185932
-0.019723
-0.0178309
-0.0177471
-0.0190904
-0.019989
-0.0157655
-0.0157517
-0.0157787
-0.0183791
-0.0195462
-0.0194381
-0.0183882
-0.0157822
-0.0157706
-0.0157511
-0.0185241
-0.0198704
-0.0197729
-0.0186063
-0.0157616
-0.0157753
-0.0157861
-0.0183714
-0.0184932
-0.0186697
-0.0183784
-0.018345
-0.0157814
-0.0157393
-0.0157264
-0.0157262
-0.0157289
-0.0157336
-0.0157451
-0.015784
-0.0183724
-0.0183535
-0.0196618
-0.0184838
-0.0183931
-0.0183923
-0.0157733
-0.0157603
-0.0157591
-0.0157598
-0.0157618
-0.0157741
-0.0183675
-0.0183525
-0.0197527
-0.0184333
-0.018412
-0.0183658
-0.0183828
-0.0183962
-0.0183559
-0.0183766
-0.0184842
-0.0196627
-0.018977
-0.0197068
-0.018298
-0.0183219
-0.0182896
-0.0195454
-0.0186788
-0.00909181
-0.00785451
-0.00786184
-0.00786174
-0.00896884
-0.00788184
-0.00545931
-0.00547391
-0.00548169
-0.00548221
-0.00547558
-0.00546643
-0.00795701
-0.00912355
-0.00861784
-0.00545435
-0.00550096
-0.00549804
-0.00548341
-0.00547952
-0.00547976
-0.00548473
-0.00550255
-0.00550664
-0.00545607
-0.00790235
-0.00545568
-0.00551208
-0.00550158
-0.00546497
-0.0054314
-0.00540863
-0.00540954
-0.00543053
-0.00546723
-0.00550348
-0.00551188
-0.00545526
-0.00786652
-0.00789772
-0.00550754
-0.00550647
-0.0054542
-0.00539309
-0.00796985
-0.00791843
-0.00791842
-0.00792246
-0.00539899
-0.00545427
-0.00550234
-0.00550152
-0.00799647
-0.00906346
-0.00546717
-0.00550719
-0.00547867
-0.00541045
-0.0079408
-0.009225
-0.00909745
-0.00906865
-0.00914805
-0.00769105
-0.00540765
-0.00546653
-0.00549899
-0.00545919
-0.0078981
-0.00909232
-0.00547736
-0.00549419
-0.00545691
-0.00800828
-0.00917502
-0.00771179
-0.00938018
-0.00788539
-0.00938991
-0.00873552
-0.00793252
-0.00543425
-0.00548642
-0.00547443
-0.00793541
-0.0078551
-0.00548417
-0.00549029
-0.00543743
-0.0079796
-0.00910745
-0.00978778
-0.00947681
-0.00925257
-0.00944825
-0.00756417
-0.00911958
-0.00543024
-0.00548797
-0.00548367
-0.00795753
-0.00897441
-0.00786112
-0.00548314
-0.00548589
-0.00542538
-0.00796158
-0.0078074
-0.00782077
-0.0090588
-0.00888377
-0.00961619
-0.00910014
-0.00544479
-0.00549339
-0.00548516
-0.00796104
-0.00901515
-0.00786159
-0.0054746
-0.00548551
-0.00543363
-0.00793869
-0.00917385
-0.00959463
-0.00903302
-0.00776832
-0.0093652
-0.00804673
-0.00546747
-0.00549829
-0.00547826
-0.00795331
-0.00890463
-0.00896924
-0.00545891
-0.00549857
-0.00546742
-0.00541339
-0.0079256
-0.00913746
-0.00778094
-0.0094182
-0.0077488
-0.00913926
-0.00542338
-0.00548547
-0.00551024
-0.00546767
-0.00791849
-0.00793068
-0.00550059
-0.00550283
-0.00545675
-0.00540019
-0.00792795
-0.00913591
-0.0090935
-0.00789222
-0.00540765
-0.0054623
-0.00551011
-0.00550898
-0.00803878
-0.009187
-0.00911754
-0.00545331
-0.00551152
-0.00550405
-0.00546884
-0.00543561
-0.00541508
-0.00541368
-0.00543778
-0.00547052
-0.00550527
-0.00551369
-0.0054566
-0.00796299
-0.0088956
-0.00790101
-0.00545533
-0.00550595
-0.0055028
-0.00548639
-0.00548187
-0.00548168
-0.00548635
-0.00550029
-0.00550179
-0.00545526
-0.00794125
-0.00916382
-0.00786549
-0.00800646
-0.00546537
-0.00547518
-0.00548216
-0.00548222
-0.00547484
-0.00545985
-0.00802173
-0.00795896
-0.00916419
-0.00907585
-0.00790242
-0.00793581
-0.00795707
-0.00796029
-0.00795285
-0.00791757
-0.00916846
-0.00888944
-0.00897381
-0.00901491
-0.00890453
0.00125857
0.00245939
0.00243793
0.0024138
0.00244562
0.00123161
0.0024281
0.00485008
0.00482439
0.00480878
0.00480783
0.00482211
0.00484717
0.00239121
0.00246194
0.00124172
0.00486258
0.00480317
0.00477732
0.00477484
0.00477487
0.00477174
0.00476891
0.00477293
0.00480048
0.00486127
0.00244581
0.00486187
0.0047884
0.00476391
0.00477997
0.00482029
0.00484124
0.00483156
0.00480446
0.00477373
0.00476273
0.00478841
0.00486138
0.00244492
0.00242825
0.00480015
0.00476077
0.00478815
0.00485044
0.00235708
0.00242424
0.00240934
0.00237958
0.00484493
0.00479371
0.00476453
0.00480256
0.00236247
0.00122725
0.00125751
0.0048473
0.00477169
0.00477108
0.00484181
0.00240632
0.00268089
0.00125121
0.00275399
0.00125481
0.00257851
0.00486635
0.00477819
0.0047751
0.00484941
0.00243625
0.00245853
0.00482167
0.00476698
0.00480405
0.00233254
0.00253464
0.00277175
0.00327539
0.00326426
0.00278337
0.00140856
0.00242463
0.00480293
0.00476795
0.00482266
0.00240008
0.00126378
0.00243769
0.00480653
0.00476709
0.00482397
0.00238946
0.00116925
0.00157352
0.00318528
0.00129223
0.00248897
0.00260272
0.00256427
0.0048242
0.00476656
0.00480628
0.00236927
0.00122379
0.00241501
0.00480707
0.00476869
0.00482821
0.00240006
0.00260242
0.00292562
0.00102223
0.00168243
0.00280226
0.00122536
0.00481908
0.00476428
0.00480529
0.00235674
0.00118339
0.0024468
0.00482297
0.00476986
0.00480825
0.00239847
0.00134336
0.00133517
0.00197531
0.00213222
0.00336721
0.0017674
0.00266042
0.00479425
0.00476261
0.00482009
0.00238084
0.00122774
0.00123118
0.00484987
0.0047762
0.00477947
0.0048653
0.00271124
0.00273186
0.00286974
0.00302499
0.0029051
0.00284386
0.00482591
0.00476362
0.00476811
0.00484617
0.0024167
0.00239564
0.00480361
0.00476473
0.00479259
0.00484329
0.00239658
0.00266072
0.00255341
0.00274037
0.0048354
0.00478079
0.00475686
0.0047983
0.0023255
0.00246017
0.00246704
0.0048632
0.00478917
0.00476272
0.00477254
0.00480244
0.00482972
0.00484099
0.00481814
0.00477628
0.00476073
0.00478633
0.00486033
0.00240208
0.00123684
0.00244881
0.0048624
0.00480127
0.00477292
0.00476834
0.004771
0.00477431
0.00477343
0.00477564
0.00480212
0.00486147
0.00239359
0.00121016
0.00244763
0.00236224
0.00484819
0.0048229
0.00480825
0.00480859
0.00482334
0.00484922
0.00233025
0.00240459
0.00120952
0.00123115
0.00243599
0.00240001
0.00237068
0.00235786
0.00238126
0.00241604
0.00246135
0.00124111
0.00126463
0.00122732
0.00118418
0.00122889
0.0112508
0.0124949
0.0124895
0.0124868
0.0124911
0.0112508
0.012486
0.0149528
0.0149378
0.0149305
0.0149304
0.0149372
0.0149521
0.0124753
0.0124945
0.0112511
0.0149594
0.0149283
0.0149096
0.014903
0.0149033
0.0149039
0.0149031
0.0149089
0.0149275
0.0149588
0.0124914
0.0149592
0.0149186
0.0149006
0.0149054
0.0149191
0.0149332
0.0149371
0.0149226
0.0149056
0.0149006
0.0149188
0.0149591
0.0124928
0.0124862
0.0149272
0.0148995
0.014911
0.0149449
0.0124479
0.0124734
0.0124764
0.0124663
0.0149452
0.0149117
0.014901
0.0149282
0.0124644
0.0112492
0.0112505
0.0149519
0.0149074
0.0149027
0.0149417
0.0124657
0.0125466
0.0126088
0.0125649
0.0125478
0.0125142
0.0149403
0.0149043
0.0149091
0.0149527
0.0124902
0.0124946
0.0149365
0.0148996
0.0149142
0.0124415
0.0125437
0.0125643
0.0127282
0.0127111
0.0125989
0.0126334
0.0124769
0.014918
0.0149016
0.0149372
0.0124775
0.0112592
0.0124893
0.0149292
0.0148993
0.014926
0.0124605
0.0126667
0.0126847
0.0126484
0.0112858
0.0126829
0.0126605
0.0126334
0.0149294
0.0149003
0.0149293
0.0124666
0.0112491
0.0124871
0.0149296
0.0149008
0.0149299
0.0124732
0.0126216
0.0126409
0.0112353
0.0126241
0.0125686
0.0125704
0.0149251
0.0148983
0.0149287
0.0124636
0.0112496
0.0124913
0.0149372
0.0149022
0.0149201
0.0124698
0.0126716
0.012585
0.0126476
0.0126463
0.0126926
0.0126494
0.0126374
0.0149126
0.0148982
0.0149359
0.0124705
0.0112495
0.0112506
0.0149528
0.0149096
0.0149062
0.0149463
0.012617
0.0126278
0.0125578
0.012604
0.012679
0.0125443
0.0149434
0.0149006
0.014906
0.0149514
0.0124835
0.0124765
0.0149286
0.0149017
0.0149138
0.014949
0.0124723
0.0125322
0.0126015
0.0126384
0.0149459
0.0149105
0.0148984
0.0149264
0.0124481
0.0124942
0.0124953
0.0149597
0.0149193
0.0149013
0.0149058
0.0149214
0.014936
0.0149362
0.014925
0.0149072
0.0149006
0.0149181
0.0149585
0.0124785
0.0112515
0.0124922
0.0149594
0.0149281
0.014909
0.0149029
0.014904
0.014905
0.0149053
0.0149107
0.0149285
0.014959
0.0124743
0.0112488
0.0124935
0.0124647
0.0149526
0.0149377
0.0149309
0.0149311
0.0149383
0.0149531
0.0124497
0.0124793
0.0112486
0.0112498
0.0124904
0.0124777
0.0124673
0.0124643
0.0124708
0.0124835
0.0124945
0.0112522
0.0112592
0.0112498
0.0112499
0.0112496
0.02125
0.0224983
0.0224969
0.0224964
0.0224974
0.0212505
0.0224958
0.0249836
0.0249773
0.0249745
0.0249745
0.0249773
0.0249836
0.0224926
0.0224981
0.0212499
0.024986
0.0249737
0.024965
0.0249612
0.024961
0.0249616
0.0249618
0.024965
0.0249736
0.0249858
0.0224973
0.0249858
0.0249693
0.0249611
0.0249626
0.0249682
0.0249733
0.0249754
0.0249706
0.0249629
0.0249612
0.0249696
0.0249862
0.0224978
0.0224957
0.0249735
0.0249609
0.0249657
0.0249798
0.0224777
0.022485
0.0224914
0.0224902
0.024976
0.0249654
0.024962
0.0249743
0.0224886
0.0212495
0.02125
0.0249834
0.0249644
0.0249619
0.0249788
0.0224832
0.0224901
0.0225088
0.0224908
0.022506
0.0224826
0.02498
0.0249654
0.0249663
0.0249841
0.0224971
0.0224983
0.0249768
0.0249598
0.0249658
0.0224789
0.0225164
0.0225107
0.0225268
0.0225267
0.0225273
0.0225256
0.0224956
0.0249721
0.0249627
0.0249777
0.0224927
0.0212577
0.0224969
0.0249739
0.0249595
0.024971
0.0224818
0.0225026
0.0225208
0.0225162
0.0212555
0.0225197
0.0225062
0.0225031
0.0249757
0.0249614
0.0249745
0.0224894
0.0212489
0.0224964
0.0249742
0.0249603
0.0249722
0.0224888
0.0225048
0.0225227
0.0212525
0.0225126
0.0225037
0.0225065
0.0249722
0.0249598
0.024974
0.0224886
0.0212516
0.0224974
0.0249773
0.024962
0.0249713
0.0224862
0.0225066
0.0225208
0.0225189
0.0225154
0.0225233
0.0225236
0.0225003
0.024968
0.0249599
0.0249766
0.0224903
0.0212491
0.0212504
0.0249838
0.0249658
0.0249647
0.0249831
0.022507
0.0225012
0.0225227
0.0225097
0.0225068
0.022485
0.0249797
0.0249621
0.0249639
0.0249832
0.0224944
0.0224928
0.0249741
0.0249619
0.0249665
0.0249794
0.0224852
0.0225002
0.0224983
0.0224899
0.0249818
0.0249677
0.0249613
0.0249733
0.022482
0.0224982
0.0224982
0.0249861
0.0249697
0.0249614
0.0249632
0.0249701
0.0249754
0.0249789
0.0249766
0.0249679
0.0249633
0.0249698
0.0249859
0.0224929
0.021251
0.0224974
0.024986
0.0249738
0.0249652
0.0249621
0.0249626
0.0249641
0.0249652
0.0249678
0.0249748
0.0249861
0.0224911
0.0212505
0.0224979
0.0224886
0.0249837
0.0249776
0.0249752
0.0249756
0.0249785
0.0249845
0.0224826
0.0224931
0.0212504
0.0212495
0.0224972
0.0224928
0.0224896
0.0224889
0.0224906
0.0224945
0.0224983
0.0212511
0.0212577
0.0212489
0.0212516
0.021249
0.03125
0.0324993
0.0324989
0.0324987
0.032499
0.0312506
0.0324985
0.0349945
0.0349921
0.0349909
0.0349907
0.0349919
0.0349944
0.0324974
0.0324993
0.03125
0.0349952
0.0349911
0.0349879
0.0349864
0.0349857
0.0349851
0.0349859
0.0349876
0.0349908
0.0349952
0.032499
0.0349954
0.0349897
0.0349871
0.0349876
0.03499
0.0349914
0.0349888
0.0349902
0.0349882
0.0349866
0.0349894
0.0349953
0.0324992
0.0324985
0.0349912
0.0349874
0.0349897
0.0349941
0.0324918
0.0324973
0.0324953
0.0324907
0.034998
0.0349906
0.0349882
0.0349917
0.0324956
0.0312498
0.03125
0.0349945
0.0349882
0.0349896
0.0349954
0.0324934
0.0324916
0.0324899
0.0324996
0.0324713
0.032493
0.0350032
0.0349942
0.0349901
0.0349951
0.032499
0.0324993
0.0349919
0.0349862
0.0349909
0.0324887
0.0324766
0.0324796
0.0324944
0.0325233
0.0325236
0.0323975
0.0325023
0.035
0.0349893
0.0349928
0.0324969
0.0312577
0.0324989
0.0349908
0.0349854
0.0349895
0.0324916
0.0324676
0.0325013
0.0324998
0.0312524
0.0324939
0.0323534
0.0323791
0.0349928
0.0349871
0.0349914
0.0324957
0.0312491
0.0324987
0.034991
0.0349863
0.0349917
0.0324941
0.0324821
0.032517
0.031252
0.0324969
0.0324914
0.0324904
0.0349907
0.0349858
0.0349909
0.0324956
0.0312519
0.032499
0.0349924
0.0349877
0.0349933
0.0324979
0.0325015
0.0325082
0.0324825
0.032504
0.0325251
0.0325068
0.032495
0.0349878
0.0349855
0.0349918
0.0324958
0.0312492
0.0312506
0.0349949
0.034989
0.0349897
0.0349923
0.0325019
0.0324914
0.0324844
0.0324739
0.032376
0.0324971
0.034997
0.034988
0.0349875
0.0349942
0.0324974
0.0324975
0.0349915
0.0349872
0.0349883
0.0349938
0.0324952
0.0324771
0.0323964
0.0323749
0.035006
0.0349945
0.034988
0.0349911
0.0324924
0.0324994
0.0324993
0.0349954
0.0349896
0.0349865
0.0349873
0.0349899
0.0349915
0.0349948
0.0349988
0.0349957
0.0349904
0.0349904
0.0349953
0.0324969
0.0312512
0.032499
0.0349953
0.034991
0.0349878
0.0349866
0.0349869
0.0349883
0.0349903
0.0349913
0.0349926
0.0349956
0.0324962
0.0312511
0.0324992
0.0324956
0.0349945
0.0349923
0.0349915
0.034992
0.0349933
0.0349954
0.0324928
0.032497
0.031251
0.0312498
0.032499
0.032497
0.0324958
0.0324957
0.032496
0.0324975
0.0324994
0.0312512
0.0312578
0.0312491
0.0312519
0.0312492
0.04125
0.0424997
0.0424996
0.0424995
0.0424996
0.0412507
0.0424995
0.044999
0.0449983
0.0449974
0.0449969
0.0449972
0.0449982
0.0424989
0.0424996
0.04125
0.0449992
0.0449987
0.0449984
0.044998
0.0449959
0.0449943
0.0449945
0.0449958
0.0449969
0.0449984
0.0424995
0.0449991
0.0449984
0.044999
0.0450003
0.0450014
0.0449968
0.0449947
0.0449972
0.0449961
0.0449946
0.0449964
0.0449986
0.0424996
0.0424994
0.0449984
0.0449989
0.0450017
0.045004
0.0425022
0.0425019
0.0424973
0.0424939
0.0449888
0.0449923
0.0449953
0.0449973
0.0424979
0.0412499
0.04125
0.0449988
0.0449979
0.045001
0.0450108
0.0424996
0.0425049
0.0424727
0.0424446
0.0422335
0.042256
0.0449986
0.0449983
0.044997
0.0449985
0.0424996
0.0424997
0.0449979
0.0449963
0.0449971
0.0425011
0.0425159
0.0424451
0.0425414
0.0426354
0.0426251
0.0422992
0.0425075
0.0450018
0.0449972
0.0449979
0.0424983
0.0412577
0.0424996
0.0449976
0.0449957
0.0449948
0.0424895
0.0409156
0.0426281
0.0425113
0.041299
0.0425507
0.0407818
0.0423733
0.0449994
0.0449967
0.0449976
0.0424977
0.0412491
0.0424995
0.0449979
0.0449967
0.0449965
0.0424972
0.0423955
0.0426547
0.0413147
0.0424558
0.0424068
0.0424527
0.0449977
0.0449964
0.0449976
0.0424978
0.041252
0.0424996
0.0449987
0.044999
0.0450035
0.0425104
0.0423533
0.0425018
0.042399
0.0426513
0.0426317
0.0424545
0.0424852
0.0450004
0.044997
0.0449979
0.0424976
0.0412492
0.0412506
0.0449993
0.0449993
0.0450024
0.0450029
0.042478
0.0424766
0.0421522
0.0409848
0.0423087
0.0421891
0.0450113
0.0449996
0.0449973
0.0449986
0.0424984
0.042499
0.0449989
0.044999
0.0449994
0.0449985
0.0425053
0.0424103
0.0424119
0.0422534
0.0450225
0.0450032
0.0449983
0.0449979
0.042496
0.0424998
0.0424997
0.0449992
0.0449982
0.0449976
0.0449975
0.0449984
0.0450006
0.0449997
0.0450039
0.0450072
0.0450007
0.0449984
0.0449989
0.0424983
0.0412512
0.0424996
0.0449991
0.0449982
0.0449975
0.0449974
0.0449978
0.044998
0.0449994
0.0450007
0.0449994
0.0449991
0.042498
0.0412513
0.0424996
0.0424981
0.0449989
0.0449983
0.0449982
0.0449985
0.044999
0.0449995
0.0424965
0.0424984
0.0412512
0.0412499
0.0424996
0.0424984
0.0424979
0.042498
0.0424978
0.0424985
0.0424999
0.0412512
0.0412578
0.0412491
0.0412519
0.0412492
0.05125
0.0524998
0.0524998
0.0524998
0.0524997
0.0512507
0.0524999
0.0550015
0.0550017
0.0550009
0.0549995
0.0549991
0.0549996
0.0524995
0.0524998
0.05125
0.0550012
0.0550028
0.0550048
0.0550052
0.0550017
0.0549955
0.0549944
0.054998
0.0549996
0.055
0.0524998
0.0550009
0.0550028
0.0550056
0.0550092
0.0550109
0.0550028
0.054984
0.0549819
0.0549955
0.0549986
0.0549996
0.0549998
0.0524998
0.0524999
0.0550016
0.0550036
0.0550059
0.0550089
0.0525044
0.0525059
0.052495
0.0524682
0.0549999
0.0549974
0.0549984
0.0549995
0.0524988
0.0512499
0.05125
0.0550007
0.0550022
0.0550019
0.0549981
0.0525035
0.0524867
0.0524831
0.0525212
0.0512084
0.0525104
0.0549908
0.0549943
0.0549985
0.0549996
0.0524998
0.0524998
0.0550012
0.055003
0.0550016
0.0524984
0.0512618
0.052219
0.0526038
0.0530363
0.051801
0.051042
0.0524812
0.054991
0.0549982
0.0549998
0.0524988
0.0512577
0.0524998
0.0550016
0.0550034
0.055002
0.0524968
0.0512267
0.0510191
0.0513278
0.0516912
0.0512481
0.0518256
0.052517
0.054998
0.0549999
0.0550002
0.0524985
0.0512491
0.0524998
0.0550019
0.0550037
0.0550002
0.0524922
0.0514644
0.0531151
0.0518603
0.0524338
0.0524091
0.0523348
0.0550014
0.0550013
0.0550006
0.0524987
0.051252
0.0524998
0.055002
0.0550047
0.0550061
0.052485
0.050936
0.0526443
0.0520464
0.0516216
0.0531346
0.0524032
0.0523708
0.0550052
0.0550019
0.0550007
0.0524984
0.0512492
0.0512507
0.0550016
0.0550047
0.0550093
0.0550171
0.0524269
0.0524383
0.0520615
0.0504272
0.051846
0.051071
0.0549795
0.0550006
0.0550011
0.0550004
0.0524988
0.0524998
0.0550027
0.0550052
0.0550054
0.0550005
0.0525053
0.0525718
0.0513233
0.0525215
0.0550138
0.0549958
0.0550005
0.0550007
0.0524975
0.0524999
0.0524999
0.0550012
0.0550028
0.0550041
0.0550046
0.0550045
0.0550013
0.0550068
0.0550189
0.0550151
0.0550045
0.0550018
0.0550004
0.0524989
0.0512512
0.0524998
0.0550011
0.0550022
0.0550035
0.0550041
0.055004
0.0550058
0.0550082
0.0550068
0.0550029
0.055001
0.0524989
0.0512513
0.0524999
0.0524991
0.0550013
0.0550018
0.0550021
0.0550024
0.0550027
0.0550018
0.0524983
0.0524991
0.0512512
0.0512499
0.0524999
0.0524991
0.0524988
0.052499
0.0524986
0.052499
0.0525
0.0512512
0.0512578
0.0512491
0.051252
0.0512492
0.06125
0.0624999
0.0625
0.0625
0.0624999
0.0612507
0.0625002
0.0650038
0.065005
0.0650047
0.0650034
0.0650025
0.0650018
0.0625
0.0624999
0.06125
0.0650032
0.0650069
0.0650107
0.0650111
0.0650082
0.0650039
0.0650024
0.0650036
0.0650035
0.0650018
0.0624999
0.0650028
0.0650078
0.0650127
0.0650171
0.0650134
0.0650045
0.0649917
0.0649908
0.0650009
0.065006
0.0650047
0.0650018
0.0624999
0.0625002
0.0650059
0.065011
0.0650132
0.0650185
0.0625105
0.0625057
0.0624637
0.0624535
0.0650036
0.0650074
0.0650062
0.0650036
0.0624997
0.0612499
0.0612501
0.0650032
0.0650087
0.0650104
0.0650064
0.0625006
0.0624011
0.0609187
0.0611526
0.0611439
0.0626863
0.064999
0.0650025
0.0650045
0.0650018
0.0625
0.0624999
0.0650052
0.0650116
0.0650109
0.0625014
0.0625997
0.0624749
0.0630606
0.0620578
0.0618006
0.0626629
0.0624914
0.0649992
0.0650052
0.065003
0.0624994
0.0612577
0.0625001
0.0650067
0.065015
0.0650156
0.0624984
0.0616262
0.061955
0.0609079
0.0612903
0.0621944
0.0626378
0.0627015
0.065003
0.0650067
0.0650038
0.0624992
0.0612491
0.0625002
0.0650075
0.065019
0.065031
0.0625249
0.0610045
0.0612077
0.063338
0.0630377
0.0625515
0.0650022
0.0650065
0.0650039
0.0624994
0.061252
0.0625
0.0650066
0.0650175
0.0650285
0.0625345
0.0613082
0.0632445
0.0630392
0.0622517
0.0609736
0.0618059
0.0623058
0.0649934
0.0650045
0.0650032
0.0624989
0.0612492
0.0612506
0.0650041
0.0650116
0.0650158
0.0649931
0.0623672
0.0622803
0.0623484
0.0620268
0.0603428
0.06122
0.0649926
0.0650024
0.065005
0.0650023
0.0624991
0.0625005
0.0650066
0.0650112
0.0650077
0.0650118
0.0624921
0.0624081
0.0625382
0.0626956
0.065048
0.0650191
0.0650103
0.065005
0.0624987
0.0625
0.0625
0.065003
0.0650075
0.0650112
0.0650162
0.0650171
0.065012
0.0650143
0.065023
0.0650226
0.0650155
0.0650083
0.0650029
0.0624994
0.0612512
0.0625
0.065003
0.0650065
0.0650108
0.0650132
0.0650135
0.0650147
0.0650159
0.0650133
0.0650079
0.0650034
0.0624996
0.0612514
0.0625
0.0625
0.0650039
0.0650057
0.0650065
0.0650067
0.0650063
0.0650044
0.0624999
0.0624997
0.0612513
0.0612499
0.0625001
0.0624996
0.0624995
0.0624998
0.0624994
0.0624995
0.0625001
0.0612512
0.0612577
0.0612491
0.061252
0.0612492
0.07125
0.0725001
0.0725004
0.0725004
0.0725002
0.0712507
0.0725008
0.0750076
0.0750112
0.0750124
0.0750116
0.0750095
0.0750061
0.072501
0.0725001
0.07125
0.0750065
0.0750142
0.0750223
0.0750272
0.0750273
0.0750246
0.0750213
0.0750169
0.0750113
0.0750055
0.0725004
0.0750066
0.0750176
0.0750276
0.075032
0.0750328
0.0750266
0.0750199
0.0750183
0.0750198
0.0750213
0.0750146
0.0750054
0.0725002
0.0725008
0.0750144
0.0750278
0.0750311
0.0750202
0.0725127
0.0725061
0.0724882
0.072503
0.0750041
0.0750238
0.0750232
0.0750121
0.0725013
0.07125
0.07125
0.0750079
0.0750232
0.0750334
0.0750239
0.0724985
0.0712546
0.0712453
0.0709965
0.0711651
0.0726112
0.0750208
0.0750279
0.0750194
0.0750066
0.0725004
0.0725001
0.0750123
0.07503
0.0750353
0.0725141
0.0725252
0.072744
0.0721594
0.0720946
0.072323
0.0726472
0.0725006
0.0750274
0.0750242
0.0750101
0.0725002
0.0712577
0.0725005
0.075015
0.0750351
0.075041
0.0725191
0.072528
0.0724246
0.0715776
0.0705405
0.0727188
0.0727759
0.0725175
0.0750252
0.0750259
0.0750118
0.0725005
0.0712491
0.0725006
0.0750155
0.0750378
0.0750513
0.07254
0.0725017
0.0720426
0.0704187
0.0711177
0.0727401
0.0725521
0.0750239
0.0750253
0.0750116
0.0725008
0.071252
0.0725004
0.0750131
0.0750334
0.0750438
0.0725543
0.0711986
0.0712959
0.0723795
0.0719279
0.0726837
0.0750176
0.0750218
0.0750097
0.0725
0.0712492
0.0712507
0.0750081
0.075024
0.0750342
0.0750303
0.0724978
0.0713269
0.0723578
0.0724477
0.0726232
0.0712369
0.0750116
0.0750208
0.0750177
0.0750065
0.0724996
0.0725014
0.0750144
0.0750279
0.0750323
0.0750205
0.0725074
0.0724165
0.0726003
0.0726362
0.0750289
0.0750357
0.0750259
0.0750129
0.0725008
0.0725003
0.0725002
0.0750065
0.0750173
0.075027
0.0750308
0.0750306
0.0750298
0.0750325
0.075034
0.0750355
0.0750305
0.075018
0.0750065
0.0725002
0.0712512
0.0725004
0.0750064
0.0750139
0.0750221
0.0750278
0.0750306
0.0750316
0.0750301
0.0750246
0.0750156
0.075007
0.0725007
0.0712515
0.0725003
0.0725014
0.0750077
0.0750118
0.0750139
0.0750142
0.0750125
0.0750084
0.0725021
0.0725004
0.0712514
0.07125
0.0725004
0.0725004
0.0725007
0.0725012
0.0725005
0.0725
0.0725004
0.0712512
0.0712577
0.0712491
0.071252
0.0712492
0.08125
0.0825004
0.082501
0.0825012
0.0825007
0.0812508
0.0825017
0.085015
0.085023
0.0850268
0.0850263
0.085022
0.0850141
0.0825027
0.0825005
0.0812499
0.0850127
0.0850288
0.0850476
0.0850613
0.0850671
0.0850655
0.0850579
0.0850446
0.0850267
0.0850117
0.082501
0.0850131
0.0850369
0.0850626
0.0850804
0.085087
0.0850874
0.0850842
0.0850816
0.0850751
0.0850575
0.0850339
0.085012
0.0825007
0.0825017
0.0850303
0.0850649
0.0850865
0.0850791
0.0825371
0.0825315
0.0825296
0.0825279
0.0850743
0.0850777
0.0850591
0.0850276
0.0825039
0.08125
0.08125
0.0850162
0.0850518
0.0850896
0.0850897
0.0825191
0.0824538
0.0815783
0.0826231
0.0826071
0.0824996
0.0850791
0.0850812
0.0850472
0.0850147
0.082501
0.0825005
0.085025
0.0850677
0.085101
0.0825532
0.0824584
0.0828437
0.08287
0.0824932
0.0824906
0.0824691
0.0825303
0.0850911
0.0850614
0.0850227
0.0825018
0.0812577
0.0825011
0.0850294
0.0850747
0.0851009
0.0825469
0.0824551
0.0826101
0.0826106
0.0811842
0.0825933
0.0826316
0.0824969
0.0850883
0.085067
0.0850266
0.0825028
0.0812491
0.0825013
0.0850291
0.0850732
0.0850952
0.0825447
0.0825487
0.0824205
0.0811623
0.0825684
0.0829642
0.0825922
0.0850864
0.0850659
0.0850262
0.0825032
0.0812521
0.0825009
0.0850243
0.0850648
0.0850926
0.0825459
0.0827334
0.0824737
0.0827651
0.0825169
0.082416
0.0826177
0.0825948
0.0850807
0.0850581
0.0850219
0.082502
0.0812492
0.0812507
0.0850154
0.0850488
0.0850816
0.085077
0.0827328
0.0825426
0.082742
0.0825386
0.0824788
0.0826545
0.0850727
0.0850753
0.0850452
0.0850143
0.0825008
0.082503
0.0850287
0.0850611
0.0850812
0.0850717
0.082508
0.0826384
0.0825078
0.0825031
0.0850912
0.0850846
0.0850607
0.0850279
0.0825052
0.0825006
0.0825006
0.0850125
0.0850355
0.0850604
0.0850784
0.0850872
0.0850937
0.0850954
0.0851016
0.08509
0.0850651
0.0850367
0.0850127
0.0825016
0.0812513
0.0825011
0.0850124
0.0850282
0.0850474
0.0850624
0.085071
0.0850725
0.0850674
0.0850521
0.0850306
0.0850132
0.0825027
0.0812516
0.0825007
0.0825041
0.085015
0.0850235
0.0850283
0.0850288
0.0850249
0.0850163
0.0825062
0.0825018
0.0812515
0.08125
0.082501
0.0825019
0.082503
0.0825037
0.0825024
0.0825011
0.0825007
0.0812513
0.0812578
0.0812491
0.0812521
0.0812492
0.09125
0.092501
0.0925019
0.0925023
0.0925016
0.0912508
0.092503
0.095026
0.0950407
0.0950485
0.0950482
0.09504
0.0950254
0.0925052
0.0925011
0.09125
0.0950212
0.0950507
0.0950901
0.0951221
0.0951396
0.095139
0.0951206
0.0950878
0.0950489
0.0950205
0.092502
0.0950218
0.0950649
0.0951214
0.0951826
0.0952276
0.0952498
0.0952484
0.0952259
0.0951773
0.0951156
0.0950616
0.0950204
0.0925014
0.0925031
0.0950524
0.0951242
0.095197
0.0952567
0.0926899
0.0926747
0.0926839
0.0926712
0.0952454
0.0951832
0.0951163
0.0950493
0.0925078
0.0912502
0.0912501
0.0950272
0.0950945
0.0951924
0.0952711
0.0926693
0.0923936
0.0909957
0.0924929
0.0909522
0.0923047
0.0952464
0.0951787
0.0950885
0.0950255
0.0925018
0.092501
0.0950428
0.0951289
0.0952428
0.0927182
0.0924559
0.0924772
0.0925783
0.0925199
0.0925439
0.0910247
0.0926561
0.0952263
0.0951207
0.0950399
0.0925041
0.0912577
0.092502
0.0950506
0.0951454
0.0952583
0.0926895
0.0909548
0.0925348
0.0924998
0.0912568
0.0924987
0.0923624
0.092313
0.0952419
0.0951367
0.0950476
0.0925061
0.0912492
0.0925024
0.0950498
0.095143
0.0952527
0.0926856
0.0924741
0.092502
0.0912543
0.0924918
0.0925871
0.092457
0.0952383
0.0951357
0.0950475
0.0925069
0.0912522
0.0925016
0.0950412
0.0951236
0.0952291
0.0926789
0.0909625
0.0925365
0.0925202
0.092483
0.0924991
0.0923384
0.0923561
0.0952221
0.0951193
0.0950397
0.092505
0.0912493
0.0912508
0.095026
0.0950898
0.0951808
0.0952495
0.0923428
0.0910352
0.0923372
0.0925677
0.0923311
0.0920463
0.0952554
0.0951797
0.0950884
0.0950254
0.0925024
0.0925054
0.09505
0.0951184
0.0951887
0.0952548
0.0926732
0.0923371
0.0924772
0.0923839
0.0952679
0.0951943
0.0951198
0.09505
0.0925119
0.0925012
0.0925011
0.0950208
0.0950627
0.095119
0.0951834
0.0952336
0.0952564
0.0952571
0.0952386
0.0951908
0.095123
0.0950643
0.095021
0.0925038
0.0912513
0.092502
0.0950207
0.0950501
0.0950905
0.0951246
0.0951436
0.0951446
0.0951275
0.095094
0.0950522
0.0950216
0.0925059
0.0912519
0.0925014
0.0925079
0.095026
0.0950414
0.09505
0.0950503
0.0950423
0.0950271
0.0925128
0.092504
0.0912518
0.0912502
0.0925019
0.0925043
0.0925065
0.0925074
0.0925054
0.0925027
0.0925012
0.0912513
0.0912577
0.0912492
0.0912522
0.0912493
0.10125
0.102501
0.102503
0.102503
0.102502
0.101251
0.102504
0.105035
0.105055
0.105066
0.105066
0.105055
0.105035
0.102507
0.102501
0.10125
0.105028
0.105069
0.105127
0.105177
0.105205
0.105205
0.105176
0.105125
0.105068
0.105028
0.102503
0.105029
0.105089
0.105176
0.105279
0.105372
0.105417
0.105416
0.10537
0.105274
0.105172
0.105086
0.105028
0.102502
0.102504
0.105071
0.105178
0.105319
0.105472
0.103051
0.103123
0.103139
0.103084
0.105459
0.105308
0.105172
0.105068
0.102511
0.10125
0.10125
0.105036
0.10513
0.105285
0.105478
0.103118
0.101919
0.101702
0.101449
0.101754
0.103222
0.105459
0.105273
0.105124
0.105034
0.102503
0.102501
0.105057
0.105182
0.105382
0.103067
0.101937
0.101582
0.1024
0.102411
0.102479
0.101591
0.103178
0.105368
0.105174
0.105054
0.102506
0.101258
0.102503
0.105068
0.105209
0.105422
0.103133
0.101664
0.102397
0.101123
0.100904
0.102391
0.102539
0.10177
0.105409
0.105202
0.105065
0.10251
0.101249
0.102503
0.105067
0.105207
0.105417
0.10313
0.101421
0.102408
0.100904
0.102345
0.102485
0.101548
0.105406
0.105201
0.105065
0.102511
0.101252
0.102502
0.105055
0.105177
0.10537
0.103078
0.101733
0.102474
0.102391
0.102344
0.102395
0.101369
0.103199
0.105366
0.105174
0.105054
0.102508
0.101249
0.101251
0.105035
0.105125
0.105275
0.105463
0.103217
0.101565
0.102535
0.102489
0.101366
0.101716
0.105469